<?xml version="1.0" encoding="UTF-8"?>

<!-- generated on 2022-12-14 11:08:17 by Eclipse SUMO sumo Version 1.15.0
<configuration xmlns:xsi="http://www.w3.org/2001/XMLSchema-instance" xsi:noNamespaceSchemaLocation="http://sumo.dlr.de/xsd/sumoConfiguration.xsd">

    <input>
        <net-file value="data/SUMO_Traffic_Scenario/Scenario-6/network.net.xml"/>
        <route-files value="data/SUMO_Traffic_Scenario/Scenario-6/routes.rou.xml"/>
        <additional-files value="data/SUMO_Traffic_Scenario/Scenario-6/additional.add.xml"/>
    </input>

    <output>
        <fcd-output value="data/SUMO_Traffic_Scenario/Scenario-6/output/FCD-output.xml"/>
    </output>

    <time>
        <begin value="0"/>
        <end value="1200"/>
    </time>

</configuration>
-->

<fcd-export xmlns:xsi="http://www.w3.org/2001/XMLSchema-instance" xsi:noNamespaceSchemaLocation="http://sumo.dlr.de/xsd/fcd_file.xsd">
    <timestep time="0.00">
        <vehicle id="test0" x="144.90" y="1.60" angle="270.00" type="test" speed="8.91" pos="5.10" lane="-E2_0" slope="0.00"/>
    </timestep>
    <timestep time="1.00">
        <vehicle id="f1.0" x="-44.90" y="-1.60" angle="90.00" type="CarA" speed="7.12" pos="5.10" lane="E0_0" slope="0.00"/>
        <vehicle id="f2.0" x="144.90" y="1.60" angle="270.00" type="CarC" speed="4.91" pos="5.10" lane="-E2_0" slope="0.00"/>
        <vehicle id="test0" x="135.55" y="1.60" angle="270.00" type="test" speed="9.35" pos="14.45" lane="-E2_0" slope="0.00"/>
    </timestep>
    <timestep time="2.00">
        <vehicle id="f1.0" x="-35.11" y="-1.60" angle="90.00" type="CarA" speed="9.79" pos="14.89" lane="E0_0" slope="0.00"/>
        <vehicle id="f1.1" x="-44.90" y="-1.60" angle="90.00" type="CarA" speed="5.90" pos="5.10" lane="E0_0" slope="0.00"/>
        <vehicle id="f2.0" x="139.29" y="1.60" angle="270.00" type="CarC" speed="5.61" pos="10.71" lane="-E2_0" slope="0.00"/>
        <vehicle id="test0" x="125.55" y="1.60" angle="270.00" type="test" speed="10.00" pos="24.45" lane="-E2_0" slope="0.00"/>
    </timestep>
    <timestep time="3.00">
        <vehicle id="f1.0" x="-26.52" y="-1.60" angle="90.00" type="CarA" speed="8.58" pos="23.48" lane="E0_0" slope="0.00"/>
        <vehicle id="f1.1" x="-37.11" y="-1.60" angle="90.00" type="CarA" speed="7.79" pos="12.89" lane="E0_0" slope="0.00"/>
        <vehicle id="f1.2" x="-44.90" y="-1.60" angle="90.00" type="CarB" speed="4.54" pos="5.10" lane="E0_0" slope="0.00"/>
        <vehicle id="f2.0" x="131.33" y="1.60" angle="270.00" type="CarC" speed="7.96" pos="18.67" lane="-E2_0" slope="0.00"/>
        <vehicle id="f2.1" x="144.90" y="1.60" angle="270.00" type="CarA" speed="5.45" pos="5.10" lane="-E2_0" slope="0.00"/>
        <vehicle id="test0" x="115.60" y="1.60" angle="270.00" type="test" speed="9.95" pos="34.40" lane="-E2_0" slope="0.00"/>
    </timestep>
    <timestep time="4.00">
        <vehicle id="f1.0" x="-17.27" y="-1.60" angle="90.00" type="CarA" speed="9.26" pos="32.73" lane="E0_0" slope="0.00"/>
        <vehicle id="f1.1" x="-30.34" y="-1.60" angle="90.00" type="CarA" speed="6.77" pos="19.66" lane="E0_0" slope="0.00"/>
        <vehicle id="f1.2" x="-40.91" y="-1.60" angle="90.00" type="CarB" speed="3.99" pos="9.09" lane="E0_0" slope="0.00"/>
        <vehicle id="f2.0" x="123.04" y="1.60" angle="270.00" type="CarC" speed="8.29" pos="26.96" lane="-E2_0" slope="0.00"/>
        <vehicle id="f2.1" x="140.95" y="1.60" angle="270.00" type="CarA" speed="3.95" pos="9.05" lane="-E2_0" slope="0.00"/>
        <vehicle id="test0" x="106.29" y="1.60" angle="270.00" type="test" speed="9.31" pos="43.71" lane="-E2_0" slope="0.00"/>
    </timestep>
    <timestep time="5.00">
        <vehicle id="f1.0" x="-9.14" y="-1.60" angle="90.00" type="CarA" speed="8.13" pos="40.86" lane="E0_0" slope="0.00"/>
        <vehicle id="f1.1" x="-21.98" y="-1.60" angle="90.00" type="CarA" speed="8.36" pos="28.02" lane="E0_0" slope="0.00"/>
        <vehicle id="f1.2" x="-36.03" y="-1.60" angle="90.00" type="CarB" speed="4.88" pos="13.97" lane="E0_0" slope="0.00"/>
        <vehicle id="f1.3" x="-44.90" y="-1.60" angle="90.00" type="CarA" speed="0.06" pos="5.10" lane="E0_0" slope="0.00"/>
        <vehicle id="f2.0" x="114.70" y="1.60" angle="270.00" type="CarC" speed="8.34" pos="35.30" lane="-E2_0" slope="0.00"/>
        <vehicle id="f2.1" x="133.38" y="1.60" angle="270.00" type="CarA" speed="7.57" pos="16.62" lane="-E2_0" slope="0.00"/>
        <vehicle id="test0" x="101.48" y="1.60" angle="270.00" type="test" speed="4.81" pos="48.52" lane="-E2_0" slope="0.00"/>
    </timestep>
    <timestep time="6.00">
        <vehicle id="f1.0" x="0.75" y="-1.60" angle="90.00" type="CarA" speed="9.98" pos="0.75" lane="link_0" slope="0.00"/>
        <vehicle id="f1.1" x="-16.60" y="-1.60" angle="90.00" type="CarA" speed="5.39" pos="33.40" lane="E0_0" slope="0.00"/>
        <vehicle id="f1.2" x="-29.48" y="-1.60" angle="90.00" type="CarB" speed="6.55" pos="20.52" lane="E0_0" slope="0.00"/>
        <vehicle id="f1.3" x="-42.82" y="-1.60" angle="90.00" type="CarA" speed="2.08" pos="7.18" lane="E0_0" slope="0.00"/>
        <vehicle id="f2.0" x="109.59" y="1.60" angle="270.00" type="CarC" speed="5.11" pos="40.41" lane="-E2_0" slope="0.00"/>
        <vehicle id="f2.1" x="126.81" y="1.60" angle="270.00" type="CarA" speed="6.57" pos="23.19" lane="-E2_0" slope="0.00"/>
        <vehicle id="f2.2" x="144.90" y="1.60" angle="270.00" type="CarD" speed="4.52" pos="5.10" lane="-E2_0" slope="0.00"/>
        <vehicle id="test0" x="101.12" y="1.60" angle="270.00" type="test" speed="0.36" pos="48.88" lane="-E2_0" slope="0.00"/>
    </timestep>
    <timestep time="7.00">
        <vehicle id="f1.0" x="10.57" y="-1.60" angle="90.00" type="CarA" speed="9.82" pos="10.57" lane="link_0" slope="0.00"/>
        <vehicle id="f1.1" x="-8.11" y="-1.60" angle="90.00" type="CarA" speed="8.49" pos="41.89" lane="E0_0" slope="0.00"/>
        <vehicle id="f1.2" x="-25.11" y="-1.60" angle="90.00" type="CarB" speed="4.37" pos="24.89" lane="E0_0" slope="0.00"/>
        <vehicle id="f1.3" x="-36.79" y="-1.60" angle="90.00" type="CarA" speed="6.02" pos="13.21" lane="E0_0" slope="0.00"/>
        <vehicle id="f1.4" x="-44.90" y="-1.60" angle="90.00" type="CarC" speed="2.63" pos="5.10" lane="E0_0" slope="0.00"/>
        <vehicle id="f2.0" x="107.65" y="1.60" angle="270.00" type="CarC" speed="1.94" pos="42.35" lane="-E2_0" slope="0.00"/>
        <vehicle id="f2.1" x="120.83" y="1.60" angle="270.00" type="CarA" speed="5.99" pos="29.17" lane="-E2_0" slope="0.00"/>
        <vehicle id="f2.2" x="139.03" y="1.60" angle="270.00" type="CarD" speed="5.87" pos="10.97" lane="-E2_0" slope="0.00"/>
        <vehicle id="test0" x="101.04" y="1.60" angle="270.00" type="test" speed="0.08" pos="48.96" lane="-E2_0" slope="0.00"/>
    </timestep>
    <timestep time="8.00">
        <vehicle id="f1.0" x="19.70" y="-1.60" angle="90.00" type="CarA" speed="9.14" pos="19.70" lane="link_0" slope="0.00"/>
        <vehicle id="f1.1" x="1.13" y="-1.60" angle="90.00" type="CarA" speed="9.34" pos="1.13" lane="link_0" slope="0.00"/>
        <vehicle id="f1.2" x="-17.78" y="-1.60" angle="90.00" type="CarB" speed="7.33" pos="32.22" lane="E0_0" slope="0.00"/>
        <vehicle id="f1.3" x="-32.96" y="-1.60" angle="90.00" type="CarA" speed="3.83" pos="17.04" lane="E0_0" slope="0.00"/>
        <vehicle id="f1.4" x="-42.57" y="-1.60" angle="90.00" type="CarC" speed="2.33" pos="7.43" lane="E0_0" slope="0.00"/>
        <vehicle id="f2.0" x="107.56" y="1.60" angle="270.00" type="CarC" speed="0.09" pos="42.44" lane="-E2_0" slope="0.00"/>
        <vehicle id="f2.1" x="116.54" y="1.60" angle="270.00" type="CarA" speed="4.29" pos="33.46" lane="-E2_0" slope="0.00"/>
        <vehicle id="f2.2" x="131.95" y="1.60" angle="270.00" type="CarD" speed="7.09" pos="18.05" lane="-E2_0" slope="0.00"/>
        <vehicle id="f2.3" x="144.90" y="1.60" angle="270.00" type="CarA" speed="5.27" pos="5.10" lane="-E2_0" slope="0.00"/>
        <vehicle id="test0" x="101.01" y="1.60" angle="270.00" type="test" speed="0.03" pos="48.99" lane="-E2_0" slope="0.00"/>
    </timestep>
    <timestep time="9.00">
        <vehicle id="f1.0" x="27.35" y="-1.60" angle="90.00" type="CarA" speed="7.65" pos="27.35" lane="link_0" slope="0.00"/>
        <vehicle id="f1.1" x="10.58" y="-1.60" angle="90.00" type="CarA" speed="9.46" pos="10.58" lane="link_0" slope="0.00"/>
        <vehicle id="f1.2" x="-9.05" y="-1.60" angle="90.00" type="CarB" speed="8.73" pos="40.95" lane="E0_0" slope="0.00"/>
        <vehicle id="f1.3" x="-26.95" y="-1.60" angle="90.00" type="CarA" speed="6.02" pos="23.05" lane="E0_0" slope="0.00"/>
        <vehicle id="f1.4" x="-40.23" y="-1.60" angle="90.00" type="CarC" speed="2.34" pos="9.77" lane="E0_0" slope="0.00"/>
        <vehicle id="f2.0" x="107.52" y="1.60" angle="270.00" type="CarC" speed="0.04" pos="42.48" lane="-E2_0" slope="0.00"/>
        <vehicle id="f2.1" x="115.02" y="1.60" angle="270.00" type="CarA" speed="1.52" pos="34.98" lane="-E2_0" slope="0.00"/>
        <vehicle id="f2.2" x="124.51" y="1.60" angle="270.00" type="CarD" speed="7.43" pos="25.49" lane="-E2_0" slope="0.00"/>
        <vehicle id="f2.3" x="140.62" y="1.60" angle="270.00" type="CarA" speed="4.28" pos="9.38" lane="-E2_0" slope="0.00"/>
        <vehicle id="test0" x="101.00" y="1.60" angle="270.00" type="test" speed="0.01" pos="49.00" lane="-E2_0" slope="0.00"/>
    </timestep>
    <timestep time="10.00">
        <vehicle id="f1.0" x="35.32" y="-1.60" angle="90.00" type="CarA" speed="7.97" pos="35.32" lane="link_0" slope="0.00"/>
        <vehicle id="f1.1" x="17.56" y="-1.60" angle="90.00" type="CarA" speed="6.98" pos="17.56" lane="link_0" slope="0.00"/>
        <vehicle id="f1.2" x="0.82" y="-1.60" angle="90.00" type="CarB" speed="9.97" pos="0.82" lane="link_0" slope="0.00"/>
        <vehicle id="f1.3" x="-20.09" y="-1.60" angle="90.00" type="CarA" speed="6.85" pos="29.91" lane="E0_0" slope="0.00"/>
        <vehicle id="f1.4" x="-34.96" y="-1.60" angle="90.00" type="CarC" speed="5.27" pos="15.04" lane="E0_0" slope="0.00"/>
        <vehicle id="f1.5" x="-44.90" y="-1.60" angle="90.00" type="CarB" speed="3.70" pos="5.10" lane="E0_0" slope="0.00"/>
        <vehicle id="f2.0" x="107.51" y="1.60" angle="270.00" type="CarC" speed="0.01" pos="42.49" lane="-E2_0" slope="0.00"/>
        <vehicle id="f2.1" x="114.26" y="1.60" angle="270.00" type="CarA" speed="0.76" pos="35.74" lane="-E2_0" slope="0.00"/>
        <vehicle id="f2.2" x="121.52" y="1.60" angle="270.00" type="CarD" speed="2.99" pos="28.48" lane="-E2_0" slope="0.00"/>
        <vehicle id="f2.3" x="135.55" y="1.60" angle="270.00" type="CarA" speed="5.06" pos="14.45" lane="-E2_0" slope="0.00"/>
        <vehicle id="f2.4" x="144.90" y="1.60" angle="270.00" type="CarB" speed="3.91" pos="5.10" lane="-E2_0" slope="0.00"/>
        <vehicle id="test0" x="101.00" y="1.60" angle="270.00" type="test" speed="0.00" pos="49.00" lane="-E2_0" slope="0.00"/>
    </timestep>
    <timestep time="11.00">
        <vehicle id="f1.0" x="44.17" y="-1.60" angle="90.00" type="CarA" speed="8.84" pos="44.17" lane="link_0" slope="0.00"/>
        <vehicle id="f1.1" x="25.24" y="-1.60" angle="90.00" type="CarA" speed="7.68" pos="25.24" lane="link_0" slope="0.00"/>
        <vehicle id="f1.2" x="8.66" y="-1.60" angle="90.00" type="CarB" speed="7.84" pos="8.66" lane="link_0" slope="0.00"/>
        <vehicle id="f1.3" x="-12.34" y="-1.60" angle="90.00" type="CarA" speed="7.75" pos="37.66" lane="E0_0" slope="0.00"/>
        <vehicle id="f1.4" x="-28.57" y="-1.60" angle="90.00" type="CarC" speed="6.39" pos="21.43" lane="E0_0" slope="0.00"/>
        <vehicle id="f1.5" x="-41.54" y="-1.60" angle="90.00" type="CarB" speed="3.36" pos="8.46" lane="E0_0" slope="0.00"/>
        <vehicle id="f2.0" x="107.50" y="1.60" angle="270.00" type="CarC" speed="0.00" pos="42.50" lane="-E2_0" slope="0.00"/>
        <vehicle id="f2.1" x="114.04" y="1.60" angle="270.00" type="CarA" speed="0.22" pos="35.96" lane="-E2_0" slope="0.00"/>
        <vehicle id="f2.2" x="120.92" y="1.60" angle="270.00" type="CarD" speed="0.60" pos="29.08" lane="-E2_0" slope="0.00"/>
        <vehicle id="f2.3" x="132.20" y="1.60" angle="270.00" type="CarA" speed="3.36" pos="17.80" lane="-E2_0" slope="0.00"/>
        <vehicle id="f2.4" x="142.68" y="1.60" angle="270.00" type="CarB" speed="2.22" pos="7.32" lane="-E2_0" slope="0.00"/>
        <vehicle id="test0" x="101.00" y="1.60" angle="270.00" type="test" speed="0.00" pos="49.00" lane="-E2_0" slope="0.00"/>
    </timestep>
    <timestep time="12.00">
        <vehicle id="f1.0" x="54.03" y="-1.60" angle="90.00" type="CarA" speed="9.86" pos="54.03" lane="link_0" slope="0.00"/>
        <vehicle id="f1.1" x="34.85" y="-1.60" angle="90.00" type="CarA" speed="9.61" pos="34.85" lane="link_0" slope="0.00"/>
        <vehicle id="f1.2" x="15.82" y="-1.60" angle="90.00" type="CarB" speed="7.16" pos="15.82" lane="link_0" slope="0.00"/>
        <vehicle id="f1.3" x="-4.29" y="-1.60" angle="90.00" type="CarA" speed="8.05" pos="45.71" lane="E0_0" slope="0.00"/>
        <vehicle id="f1.4" x="-20.14" y="-1.60" angle="90.00" type="CarC" speed="8.43" pos="29.86" lane="E0_0" slope="0.00"/>
        <vehicle id="f1.5" x="-36.65" y="-1.60" angle="90.00" type="CarB" speed="4.89" pos="13.35" lane="E0_0" slope="0.00"/>
        <vehicle id="f1.6" x="-44.90" y="-1.60" angle="90.00" type="CarD" speed="1.75" pos="5.10" lane="E0_0" slope="0.00"/>
        <vehicle id="f2.0" x="107.50" y="1.60" angle="270.00" type="CarC" speed="0.00" pos="42.50" lane="-E2_0" slope="0.00"/>
        <vehicle id="f2.1" x="114.01" y="1.60" angle="270.00" type="CarA" speed="0.03" pos="35.99" lane="-E2_0" slope="0.00"/>
        <vehicle id="f2.2" x="120.57" y="1.60" angle="270.00" type="CarD" speed="0.35" pos="29.43" lane="-E2_0" slope="0.00"/>
        <vehicle id="f2.3" x="128.32" y="1.60" angle="270.00" type="CarA" speed="3.88" pos="21.68" lane="-E2_0" slope="0.00"/>
        <vehicle id="f2.4" x="140.49" y="1.60" angle="270.00" type="CarB" speed="2.19" pos="9.51" lane="-E2_0" slope="0.00"/>
        <vehicle id="test0" x="101.00" y="1.60" angle="270.00" type="test" speed="0.00" pos="49.00" lane="-E2_0" slope="0.00"/>
    </timestep>
    <timestep time="13.00">
        <vehicle id="f1.0" x="62.88" y="-1.60" angle="90.00" type="CarA" speed="8.85" pos="62.88" lane="link_0" slope="0.00"/>
        <vehicle id="f1.1" x="42.40" y="-1.60" angle="90.00" type="CarA" speed="7.56" pos="42.40" lane="link_0" slope="0.00"/>
        <vehicle id="f1.2" x="24.82" y="-1.60" angle="90.00" type="CarB" speed="9.00" pos="24.82" lane="link_0" slope="0.00"/>
        <vehicle id="f1.3" x="2.39" y="-1.60" angle="90.00" type="CarA" speed="6.78" pos="2.39" lane="link_0" slope="0.00"/>
        <vehicle id="f1.4" x="-12.34" y="-1.60" angle="90.00" type="CarC" speed="7.80" pos="37.66" lane="E0_0" slope="0.00"/>
        <vehicle id="f1.5" x="-28.85" y="-1.60" angle="90.00" type="CarB" speed="7.80" pos="21.15" lane="E0_0" slope="0.00"/>
        <vehicle id="f1.6" x="-43.42" y="-1.60" angle="90.00" type="CarD" speed="1.48" pos="6.58" lane="E0_0" slope="0.00"/>
        <vehicle id="f2.0" x="107.50" y="1.60" angle="270.00" type="CarC" speed="0.00" pos="42.50" lane="-E2_0" slope="0.00"/>
        <vehicle id="f2.1" x="114.00" y="1.60" angle="270.00" type="CarA" speed="0.00" pos="36.00" lane="-E2_0" slope="0.00"/>
        <vehicle id="f2.2" x="120.52" y="1.60" angle="270.00" type="CarD" speed="0.05" pos="29.48" lane="-E2_0" slope="0.00"/>
        <vehicle id="f2.3" x="127.45" y="1.60" angle="270.00" type="CarA" speed="0.88" pos="22.55" lane="-E2_0" slope="0.00"/>
        <vehicle id="f2.4" x="137.15" y="1.60" angle="270.00" type="CarB" speed="3.34" pos="12.85" lane="-E2_0" slope="0.00"/>
        <vehicle id="f2.5" x="144.90" y="1.60" angle="270.00" type="CarB" speed="1.25" pos="5.10" lane="-E2_0" slope="0.00"/>
        <vehicle id="test0" x="101.00" y="1.60" angle="270.00" type="test" speed="0.00" pos="49.00" lane="-E2_0" slope="0.00"/>
    </timestep>
    <timestep time="14.00">
        <vehicle id="f1.0" x="71.73" y="-1.60" angle="90.00" type="CarA" speed="8.86" pos="71.73" lane="link_0" slope="0.00"/>
        <vehicle id="f1.1" x="50.52" y="-1.60" angle="90.00" type="CarA" speed="8.12" pos="50.52" lane="link_0" slope="0.00"/>
        <vehicle id="f1.2" x="33.30" y="-1.60" angle="90.00" type="CarB" speed="8.47" pos="33.30" lane="link_0" slope="0.00"/>
        <vehicle id="f1.3" x="11.14" y="-1.60" angle="90.00" type="CarA" speed="8.76" pos="11.14" lane="link_0" slope="0.00"/>
        <vehicle id="f1.4" x="-4.92" y="-1.60" angle="90.00" type="CarC" speed="7.42" pos="45.08" lane="E0_0" slope="0.00"/>
        <vehicle id="f1.5" x="-20.89" y="-1.60" angle="90.00" type="CarB" speed="7.96" pos="29.11" lane="E0_0" slope="0.00"/>
        <vehicle id="f1.6" x="-40.64" y="-1.60" angle="90.00" type="CarD" speed="2.79" pos="9.36" lane="E0_0" slope="0.00"/>
        <vehicle id="f2.0" x="107.50" y="1.60" angle="270.00" type="CarC" speed="0.00" pos="42.50" lane="-E2_0" slope="0.00"/>
        <vehicle id="f2.1" x="114.00" y="1.60" angle="270.00" type="CarA" speed="0.00" pos="36.00" lane="-E2_0" slope="0.00"/>
        <vehicle id="f2.2" x="120.51" y="1.60" angle="270.00" type="CarD" speed="0.01" pos="29.49" lane="-E2_0" slope="0.00"/>
        <vehicle id="f2.3" x="127.20" y="1.60" angle="270.00" type="CarA" speed="0.25" pos="22.80" lane="-E2_0" slope="0.00"/>
        <vehicle id="f2.4" x="134.72" y="1.60" angle="270.00" type="CarB" speed="2.43" pos="15.28" lane="-E2_0" slope="0.00"/>
        <vehicle id="f2.5" x="143.97" y="1.60" angle="270.00" type="CarB" speed="0.93" pos="6.03" lane="-E2_0" slope="0.00"/>
        <vehicle id="test0" x="101.00" y="1.60" angle="270.00" type="test" speed="0.00" pos="49.00" lane="-E2_0" slope="0.00"/>
    </timestep>
    <timestep time="15.00">
        <vehicle id="f1.0" x="79.38" y="-1.60" angle="90.00" type="CarA" speed="7.64" pos="79.38" lane="link_0" slope="0.00"/>
        <vehicle id="f1.1" x="58.48" y="-1.60" angle="90.00" type="CarA" speed="7.96" pos="58.48" lane="link_0" slope="0.00"/>
        <vehicle id="f1.2" x="41.14" y="-1.60" angle="90.00" type="CarB" speed="7.85" pos="41.14" lane="link_0" slope="0.00"/>
        <vehicle id="f1.3" x="19.64" y="-1.60" angle="90.00" type="CarA" speed="8.50" pos="19.64" lane="link_0" slope="0.00"/>
        <vehicle id="f1.4" x="3.71" y="-1.60" angle="90.00" type="CarC" speed="8.72" pos="3.71" lane="link_0" slope="0.00"/>
        <vehicle id="f1.5" x="-13.62" y="-1.60" angle="90.00" type="CarB" speed="7.27" pos="36.38" lane="E0_0" slope="0.00"/>
        <vehicle id="f1.6" x="-36.24" y="-1.60" angle="90.00" type="CarD" speed="4.39" pos="13.76" lane="E0_0" slope="0.00"/>
        <vehicle id="f1.7" x="-44.90" y="-1.60" angle="90.00" type="CarC" speed="2.16" pos="5.10" lane="E0_0" slope="0.00"/>
        <vehicle id="f2.0" x="107.50" y="1.60" angle="270.00" type="CarC" speed="0.00" pos="42.50" lane="-E2_0" slope="0.00"/>
        <vehicle id="f2.1" x="114.00" y="1.60" angle="270.00" type="CarA" speed="0.00" pos="36.00" lane="-E2_0" slope="0.00"/>
        <vehicle id="f2.2" x="120.51" y="1.60" angle="270.00" type="CarD" speed="0.00" pos="29.49" lane="-E2_0" slope="0.00"/>
        <vehicle id="f2.3" x="127.01" y="1.60" angle="270.00" type="CarA" speed="0.18" pos="22.99" lane="-E2_0" slope="0.00"/>
        <vehicle id="f2.4" x="134.14" y="1.60" angle="270.00" type="CarB" speed="0.58" pos="15.86" lane="-E2_0" slope="0.00"/>
        <vehicle id="f2.5" x="141.57" y="1.60" angle="270.00" type="CarB" speed="2.40" pos="8.43" lane="-E2_0" slope="0.00"/>
        <vehicle id="test0" x="101.00" y="1.60" angle="270.00" type="test" speed="0.00" pos="49.00" lane="-E2_0" slope="0.00"/>
    </timestep>
    <timestep time="16.00">
        <vehicle id="f1.0" x="86.97" y="-1.60" angle="90.00" type="CarA" speed="7.59" pos="86.97" lane="link_0" slope="0.00"/>
        <vehicle id="f1.1" x="67.73" y="-1.60" angle="90.00" type="CarA" speed="9.24" pos="67.73" lane="link_0" slope="0.00"/>
        <vehicle id="f1.2" x="48.62" y="-1.60" angle="90.00" type="CarB" speed="7.47" pos="48.62" lane="link_0" slope="0.00"/>
        <vehicle id="f1.3" x="28.54" y="-1.60" angle="90.00" type="CarA" speed="8.89" pos="28.54" lane="link_0" slope="0.00"/>
        <vehicle id="f1.4" x="11.82" y="-1.60" angle="90.00" type="CarC" speed="8.11" pos="11.82" lane="link_0" slope="0.00"/>
        <vehicle id="f1.5" x="-5.94" y="-1.60" angle="90.00" type="CarB" speed="7.68" pos="44.06" lane="E0_0" slope="0.00"/>
        <vehicle id="f1.6" x="-30.59" y="-1.60" angle="90.00" type="CarD" speed="5.65" pos="19.41" lane="E0_0" slope="0.00"/>
        <vehicle id="f1.7" x="-43.39" y="-1.60" angle="90.00" type="CarC" speed="1.51" pos="6.61" lane="E0_0" slope="0.00"/>
        <vehicle id="f2.0" x="107.50" y="1.60" angle="270.00" type="CarC" speed="0.00" pos="42.50" lane="-E2_0" slope="0.00"/>
        <vehicle id="f2.1" x="114.00" y="1.60" angle="270.00" type="CarA" speed="0.00" pos="36.00" lane="-E2_0" slope="0.00"/>
        <vehicle id="f2.2" x="120.50" y="1.60" angle="270.00" type="CarD" speed="0.00" pos="29.50" lane="-E2_0" slope="0.00"/>
        <vehicle id="f2.3" x="127.01" y="1.60" angle="270.00" type="CarA" speed="0.00" pos="22.99" lane="-E2_0" slope="0.00"/>
        <vehicle id="f2.4" x="133.82" y="1.60" angle="270.00" type="CarB" speed="0.32" pos="16.18" lane="-E2_0" slope="0.00"/>
        <vehicle id="f2.5" x="140.76" y="1.60" angle="270.00" type="CarB" speed="0.81" pos="9.24" lane="-E2_0" slope="0.00"/>
        <vehicle id="test0" x="101.00" y="1.60" angle="270.00" type="test" speed="0.00" pos="49.00" lane="-E2_0" slope="0.00"/>
    </timestep>
    <timestep time="17.00">
        <vehicle id="f1.0" x="94.74" y="-1.60" angle="90.00" type="CarA" speed="7.78" pos="94.74" lane="link_0" slope="0.00"/>
        <vehicle id="f1.1" x="75.03" y="-1.60" angle="90.00" type="CarA" speed="7.30" pos="75.03" lane="link_0" slope="0.00"/>
        <vehicle id="f1.2" x="56.90" y="-1.60" angle="90.00" type="CarB" speed="8.28" pos="56.90" lane="link_0" slope="0.00"/>
        <vehicle id="f1.3" x="36.90" y="-1.60" angle="90.00" type="CarA" speed="8.36" pos="36.90" lane="link_0" slope="0.00"/>
        <vehicle id="f1.4" x="20.81" y="-1.60" angle="90.00" type="CarC" speed="8.99" pos="20.81" lane="link_0" slope="0.00"/>
        <vehicle id="f1.5" x="1.86" y="-1.60" angle="90.00" type="CarB" speed="7.89" pos="1.86" lane="link_0" slope="0.00"/>
        <vehicle id="f1.6" x="-23.80" y="-1.60" angle="90.00" type="CarD" speed="6.79" pos="26.20" lane="E0_0" slope="0.00"/>
        <vehicle id="f1.7" x="-39.56" y="-1.60" angle="90.00" type="CarC" speed="3.83" pos="10.44" lane="E0_0" slope="0.00"/>
        <vehicle id="f2.0" x="107.50" y="1.60" angle="270.00" type="CarC" speed="0.00" pos="42.50" lane="-E2_0" slope="0.00"/>
        <vehicle id="f2.1" x="114.00" y="1.60" angle="270.00" type="CarA" speed="0.00" pos="36.00" lane="-E2_0" slope="0.00"/>
        <vehicle id="f2.2" x="120.50" y="1.60" angle="270.00" type="CarD" speed="0.00" pos="29.50" lane="-E2_0" slope="0.00"/>
        <vehicle id="f2.3" x="127.01" y="1.60" angle="270.00" type="CarA" speed="0.00" pos="22.99" lane="-E2_0" slope="0.00"/>
        <vehicle id="f2.4" x="133.63" y="1.60" angle="270.00" type="CarB" speed="0.19" pos="16.37" lane="-E2_0" slope="0.00"/>
        <vehicle id="f2.5" x="140.46" y="1.60" angle="270.00" type="CarB" speed="0.30" pos="9.54" lane="-E2_0" slope="0.00"/>
        <vehicle id="test0" x="101.00" y="1.60" angle="270.00" type="test" speed="0.00" pos="49.00" lane="-E2_0" slope="0.00"/>
    </timestep>
    <timestep time="18.00">
        <vehicle id="f1.0" x="102.92" y="-1.60" angle="90.00" type="CarA" speed="8.27" pos="2.92" lane="E2_0" slope="0.00"/>
        <vehicle id="f1.1" x="83.88" y="-1.60" angle="90.00" type="CarA" speed="8.85" pos="83.88" lane="link_0" slope="0.00"/>
        <vehicle id="f1.2" x="64.34" y="-1.60" angle="90.00" type="CarB" speed="7.44" pos="64.34" lane="link_0" slope="0.00"/>
        <vehicle id="f1.3" x="45.46" y="-1.60" angle="90.00" type="CarA" speed="8.56" pos="45.46" lane="link_0" slope="0.00"/>
        <vehicle id="f1.4" x="28.56" y="-1.60" angle="90.00" type="CarC" speed="7.75" pos="28.56" lane="link_0" slope="0.00"/>
        <vehicle id="f1.5" x="9.39" y="-1.60" angle="90.00" type="CarB" speed="7.54" pos="9.39" lane="link_0" slope="0.00"/>
        <vehicle id="f1.6" x="-15.15" y="-1.60" angle="90.00" type="CarD" speed="8.66" pos="34.85" lane="E0_0" slope="0.00"/>
        <vehicle id="f1.7" x="-33.69" y="-1.60" angle="90.00" type="CarC" speed="5.87" pos="16.31" lane="E0_0" slope="0.00"/>
        <vehicle id="f1.8" x="-44.90" y="-1.60" angle="90.00" type="CarA" speed="1.68" pos="5.10" lane="E0_0" slope="0.00"/>
        <vehicle id="f2.0" x="107.50" y="1.60" angle="270.00" type="CarC" speed="0.00" pos="42.50" lane="-E2_0" slope="0.00"/>
        <vehicle id="f2.1" x="114.00" y="1.60" angle="270.00" type="CarA" speed="0.00" pos="36.00" lane="-E2_0" slope="0.00"/>
        <vehicle id="f2.2" x="120.50" y="1.60" angle="270.00" type="CarD" speed="0.00" pos="29.50" lane="-E2_0" slope="0.00"/>
        <vehicle id="f2.3" x="127.01" y="1.60" angle="270.00" type="CarA" speed="0.00" pos="22.99" lane="-E2_0" slope="0.00"/>
        <vehicle id="f2.4" x="133.52" y="1.60" angle="270.00" type="CarB" speed="0.11" pos="16.48" lane="-E2_0" slope="0.00"/>
        <vehicle id="f2.5" x="140.15" y="1.60" angle="270.00" type="CarB" speed="0.31" pos="9.85" lane="-E2_0" slope="0.00"/>
        <vehicle id="test0" x="101.00" y="1.60" angle="270.00" type="test" speed="0.00" pos="49.00" lane="-E2_0" slope="0.00"/>
    </timestep>
    <timestep time="19.00">
        <vehicle id="f1.0" x="111.99" y="-1.60" angle="90.00" type="CarA" speed="9.08" pos="11.99" lane="E2_0" slope="0.00"/>
        <vehicle id="f1.1" x="91.55" y="-1.60" angle="90.00" type="CarA" speed="7.66" pos="91.55" lane="link_0" slope="0.00"/>
        <vehicle id="f1.2" x="72.42" y="-1.60" angle="90.00" type="CarB" speed="8.08" pos="72.42" lane="link_0" slope="0.00"/>
        <vehicle id="f1.3" x="52.45" y="-1.60" angle="90.00" type="CarA" speed="7.00" pos="52.45" lane="link_0" slope="0.00"/>
        <vehicle id="f1.4" x="37.98" y="-1.60" angle="90.00" type="CarC" speed="9.42" pos="37.98" lane="link_0" slope="0.00"/>
        <vehicle id="f1.5" x="17.65" y="-1.60" angle="90.00" type="CarB" speed="8.25" pos="17.65" lane="link_0" slope="0.00"/>
        <vehicle id="f1.6" x="-6.03" y="-1.60" angle="90.00" type="CarD" speed="9.12" pos="43.97" lane="E0_0" slope="0.00"/>
        <vehicle id="f1.7" x="-25.71" y="-1.60" angle="90.00" type="CarC" speed="7.99" pos="24.29" lane="E0_0" slope="0.00"/>
        <vehicle id="f1.8" x="-42.68" y="-1.60" angle="90.00" type="CarA" speed="2.22" pos="7.32" lane="E0_0" slope="0.00"/>
        <vehicle id="f2.0" x="107.50" y="1.60" angle="270.00" type="CarC" speed="0.00" pos="42.50" lane="-E2_0" slope="0.00"/>
        <vehicle id="f2.1" x="114.00" y="1.60" angle="270.00" type="CarA" speed="0.00" pos="36.00" lane="-E2_0" slope="0.00"/>
        <vehicle id="f2.2" x="120.50" y="1.60" angle="270.00" type="CarD" speed="0.00" pos="29.50" lane="-E2_0" slope="0.00"/>
        <vehicle id="f2.3" x="127.01" y="1.60" angle="270.00" type="CarA" speed="0.00" pos="22.99" lane="-E2_0" slope="0.00"/>
        <vehicle id="f2.4" x="133.51" y="1.60" angle="270.00" type="CarB" speed="0.01" pos="16.49" lane="-E2_0" slope="0.00"/>
        <vehicle id="f2.5" x="140.02" y="1.60" angle="270.00" type="CarB" speed="0.13" pos="9.98" lane="-E2_0" slope="0.00"/>
        <vehicle id="test0" x="101.00" y="1.60" angle="270.00" type="test" speed="0.00" pos="49.00" lane="-E2_0" slope="0.00"/>
    </timestep>
    <timestep time="20.00">
        <vehicle id="f1.0" x="121.67" y="-1.60" angle="90.00" type="CarA" speed="9.68" pos="21.67" lane="E2_0" slope="0.00"/>
        <vehicle id="f1.1" x="100.09" y="-1.60" angle="90.00" type="CarA" speed="8.64" pos="0.09" lane="E2_0" slope="0.00"/>
        <vehicle id="f1.2" x="81.74" y="-1.60" angle="90.00" type="CarB" speed="9.32" pos="81.74" lane="link_0" slope="0.00"/>
        <vehicle id="f1.3" x="59.29" y="-1.60" angle="90.00" type="CarA" speed="6.83" pos="59.29" lane="link_0" slope="0.00"/>
        <vehicle id="f1.4" x="44.78" y="-1.60" angle="90.00" type="CarC" speed="6.80" pos="44.78" lane="link_0" slope="0.00"/>
        <vehicle id="f1.5" x="27.14" y="-1.60" angle="90.00" type="CarB" speed="9.49" pos="27.14" lane="link_0" slope="0.00"/>
        <vehicle id="f1.6" x="3.34" y="-1.60" angle="90.00" type="CarD" speed="9.47" pos="3.34" lane="link_0" slope="0.00"/>
        <vehicle id="f1.7" x="-15.95" y="-1.60" angle="90.00" type="CarC" speed="9.76" pos="34.05" lane="E0_0" slope="0.00"/>
        <vehicle id="f1.8" x="-37.13" y="-1.60" angle="90.00" type="CarA" speed="5.55" pos="12.87" lane="E0_0" slope="0.00"/>
        <vehicle id="f1.9" x="-44.90" y="-1.60" angle="90.00" type="CarD" speed="1.27" pos="5.10" lane="E0_0" slope="0.00"/>
        <vehicle id="f2.0" x="107.50" y="1.60" angle="270.00" type="CarC" speed="0.00" pos="42.50" lane="-E2_0" slope="0.00"/>
        <vehicle id="f2.1" x="114.00" y="1.60" angle="270.00" type="CarA" speed="0.00" pos="36.00" lane="-E2_0" slope="0.00"/>
        <vehicle id="f2.2" x="120.50" y="1.60" angle="270.00" type="CarD" speed="0.00" pos="29.50" lane="-E2_0" slope="0.00"/>
        <vehicle id="f2.3" x="127.01" y="1.60" angle="270.00" type="CarA" speed="0.00" pos="22.99" lane="-E2_0" slope="0.00"/>
        <vehicle id="f2.4" x="133.51" y="1.60" angle="270.00" type="CarB" speed="0.00" pos="16.49" lane="-E2_0" slope="0.00"/>
        <vehicle id="f2.5" x="140.01" y="1.60" angle="270.00" type="CarB" speed="0.01" pos="9.99" lane="-E2_0" slope="0.00"/>