<?xml version="1.0" encoding="UTF-8"?>

<!-- generated on 2022-12-14 11:08:05 by Eclipse SUMO sumo Version 1.15.0
<configuration xmlns:xsi="http://www.w3.org/2001/XMLSchema-instance" xsi:noNamespaceSchemaLocation="http://sumo.dlr.de/xsd/sumoConfiguration.xsd">

    <input>
        <net-file value="data/SUMO_Traffic_Scenario/Scenario-3/network.net.xml"/>
        <route-files value="data/SUMO_Traffic_Scenario/Scenario-3/routes.rou.xml"/>
        <additional-files value="data/SUMO_Traffic_Scenario/Scenario-3/additional.add.xml"/>
    </input>

    <output>
        <fcd-output value="data/SUMO_Traffic_Scenario/Scenario-3/output/FCD-output.xml"/>
    </output>

    <time>
        <begin value="0"/>
        <end value="1200"/>
    </time>

</configuration>
-->

<fcd-export xmlns:xsi="http://www.w3.org/2001/XMLSchema-instance" xsi:noNamespaceSchemaLocation="http://sumo.dlr.de/xsd/fcd_file.xsd">
    <timestep time="0.00">
        <vehicle id="test0" x="144.90" y="1.60" angle="270.00" type="test" speed="8.91" pos="5.10" lane="-E2_0" slope="0.00"/>
    </timestep>
    <timestep time="1.00">
        <vehicle id="test0" x="135.55" y="1.60" angle="270.00" type="test" speed="9.35" pos="14.45" lane="-E2_0" slope="0.00"/>
    </timestep>
    <timestep time="2.00">
        <vehicle id="test0" x="125.55" y="1.60" angle="270.00" type="test" speed="10.00" pos="24.45" lane="-E2_0" slope="0.00"/>
    </timestep>
    <timestep time="3.00">
        <vehicle id="test0" x="115.68" y="1.60" angle="270.00" type="test" speed="9.87" pos="34.32" lane="-E2_0" slope="0.00"/>
    </timestep>
    <timestep time="4.00">
        <vehicle id="test0" x="106.34" y="1.60" angle="270.00" type="test" speed="9.34" pos="43.66" lane="-E2_0" slope="0.00"/>
    </timestep>
    <timestep time="5.00">
        <vehicle id="f2.0" x="144.90" y="1.60" angle="270.00" type="CarA" speed="7.12" pos="5.10" lane="-E2_0" slope="0.00"/>
        <vehicle id="test0" x="101.50" y="1.60" angle="270.00" type="test" speed="4.84" pos="48.50" lane="-E2_0" slope="0.00"/>
    </timestep>
    <timestep time="6.00">
        <vehicle id="f1.0" x="-44.90" y="-1.60" angle="90.00" type="CarA" speed="0.45" pos="5.10" lane="E0_0" slope="0.00"/>
        <vehicle id="f2.0" x="137.06" y="1.60" angle="270.00" type="CarA" speed="7.84" pos="12.94" lane="-E2_0" slope="0.00"/>
        <vehicle id="test0" x="101.04" y="1.60" angle="270.00" type="test" speed="0.47" pos="48.96" lane="-E2_0" slope="0.00"/>
    </timestep>
    <timestep time="7.00">
        <vehicle id="f1.0" x="-39.65" y="-1.60" angle="90.00" type="CarA" speed="5.25" pos="10.35" lane="E0_0" slope="0.00"/>
        <vehicle id="f2.0" x="128.26" y="1.60" angle="270.00" type="CarA" speed="8.81" pos="21.74" lane="-E2_0" slope="0.00"/>
        <vehicle id="test0" x="101.02" y="1.60" angle="270.00" type="test" speed="0.02" pos="48.98" lane="-E2_0" slope="0.00"/>
    </timestep>
    <timestep time="8.00">
        <vehicle id="f1.0" x="-31.07" y="-1.60" angle="90.00" type="CarA" speed="8.58" pos="18.93" lane="E0_0" slope="0.00"/>
        <vehicle id="f1.1" x="-44.90" y="-1.60" angle="90.00" type="CarC" speed="5.90" pos="5.10" lane="E0_0" slope="0.00"/>
        <vehicle id="f2.0" x="118.90" y="1.60" angle="270.00" type="CarA" speed="9.36" pos="31.10" lane="-E2_0" slope="0.00"/>
        <vehicle id="f2.1" x="144.90" y="1.60" angle="270.00" type="CarB" speed="0.44" pos="5.10" lane="-E2_0" slope="0.00"/>
        <vehicle id="test0" x="101.01" y="1.60" angle="270.00" type="test" speed="0.01" pos="48.99" lane="-E2_0" slope="0.00"/>
    </timestep>
    <timestep time="9.00">
        <vehicle id="f1.0" x="-21.17" y="-1.60" angle="90.00" type="CarA" speed="9.90" pos="28.83" lane="E0_0" slope="0.00"/>
        <vehicle id="f1.1" x="-37.39" y="-1.60" angle="90.00" type="CarC" speed="7.51" pos="12.61" lane="E0_0" slope="0.00"/>
        <vehicle id="f1.2" x="-44.90" y="-1.60" angle="90.00" type="CarA" speed="2.48" pos="5.10" lane="E0_0" slope="0.00"/>
        <vehicle id="f2.0" x="112.55" y="1.60" angle="270.00" type="CarA" speed="6.36" pos="37.45" lane="-E2_0" slope="0.00"/>
        <vehicle id="f2.1" x="141.75" y="1.60" angle="270.00" type="CarB" speed="3.15" pos="8.25" lane="-E2_0" slope="0.00"/>
        <vehicle id="test0" x="101.00" y="1.60" angle="270.00" type="test" speed="0.01" pos="49.00" lane="-E2_0" slope="0.00"/>
    </timestep>
    <timestep time="10.00">
        <vehicle id="f1.0" x="-11.48" y="-1.60" angle="90.00" type="CarA" speed="9.68" pos="38.52" lane="E0_0" slope="0.00"/>
        <vehicle id="f1.1" x="-27.99" y="-1.60" angle="90.00" type="CarC" speed="9.40" pos="22.01" lane="E0_0" slope="0.00"/>
        <vehicle id="f1.2" x="-42.86" y="-1.60" angle="90.00" type="CarA" speed="2.04" pos="7.14" lane="E0_0" slope="0.00"/>
        <vehicle id="f2.0" x="108.58" y="1.60" angle="270.00" type="CarA" speed="3.96" pos="41.42" lane="-E2_0" slope="0.00"/>
        <vehicle id="f2.1" x="135.09" y="1.60" angle="270.00" type="CarB" speed="6.65" pos="14.91" lane="-E2_0" slope="0.00"/>
        <vehicle id="test0" x="101.00" y="1.60" angle="270.00" type="test" speed="0.00" pos="49.00" lane="-E2_0" slope="0.00"/>
    </timestep>
    <timestep time="11.00">
        <vehicle id="f1.0" x="-1.57" y="-1.60" angle="90.00" type="CarA" speed="9.91" pos="48.43" lane="E0_0" slope="0.00"/>
        <vehicle id="f1.1" x="-18.55" y="-1.60" angle="90.00" type="CarC" speed="9.44" pos="31.45" lane="E0_0" slope="0.00"/>
        <vehicle id="f1.2" x="-35.84" y="-1.60" angle="90.00" type="CarA" speed="7.02" pos="14.16" lane="E0_0" slope="0.00"/>
        <vehicle id="f2.0" x="107.62" y="1.60" angle="270.00" type="CarA" speed="0.96" pos="42.38" lane="-E2_0" slope="0.00"/>
        <vehicle id="f2.1" x="125.63" y="1.60" angle="270.00" type="CarB" speed="9.46" pos="24.37" lane="-E2_0" slope="0.00"/>
        <vehicle id="test0" x="101.00" y="1.60" angle="270.00" type="test" speed="0.00" pos="49.00" lane="-E2_0" slope="0.00"/>
    </timestep>
    <timestep time="12.00">
        <vehicle id="f1.0" x="6.18" y="-1.60" angle="90.00" type="CarA" speed="7.85" pos="6.18" lane="link_0" slope="0.00"/>
        <vehicle id="f1.1" x="-9.70" y="-1.60" angle="90.00" type="CarC" speed="8.85" pos="40.30" lane="E0_0" slope="0.00"/>
        <vehicle id="f1.2" x="-29.43" y="-1.60" angle="90.00" type="CarA" speed="6.41" pos="20.57" lane="E0_0" slope="0.00"/>
        <vehicle id="f2.0" x="107.55" y="1.60" angle="270.00" type="CarA" speed="0.07" pos="42.45" lane="-E2_0" slope="0.00"/>
        <vehicle id="f2.1" x="118.46" y="1.60" angle="270.00" type="CarB" speed="7.17" pos="31.54" lane="-E2_0" slope="0.00"/>
        <vehicle id="test0" x="101.00" y="1.60" angle="270.00" type="test" speed="0.00" pos="49.00" lane="-E2_0" slope="0.00"/>
    </timestep>
    <timestep time="13.00">
        <vehicle id="f1.0" x="16.00" y="-1.60" angle="90.00" type="CarA" speed="9.82" pos="16.00" lane="link_0" slope="0.00"/>
        <vehicle id="f1.1" x="-1.94" y="-1.60" angle="90.00" type="CarC" speed="7.76" pos="48.06" lane="E0_0" slope="0.00"/>
        <vehicle id="f1.2" x="-22.63" y="-1.60" angle="90.00" type="CarA" speed="6.80" pos="27.37" lane="E0_0" slope="0.00"/>
        <vehicle id="f2.0" x="107.52" y="1.60" angle="270.00" type="CarA" speed="0.03" pos="42.48" lane="-E2_0" slope="0.00"/>
        <vehicle id="f2.1" x="114.29" y="1.60" angle="270.00" type="CarB" speed="4.16" pos="35.71" lane="-E2_0" slope="0.00"/>
        <vehicle id="test0" x="101.00" y="1.60" angle="270.00" type="test" speed="0.00" pos="49.00" lane="-E2_0" slope="0.00"/>
    </timestep>
    <timestep time="14.00">
        <vehicle id="f1.0" x="25.14" y="-1.60" angle="90.00" type="CarA" speed="9.14" pos="25.14" lane="link_0" slope="0.00"/>
        <vehicle id="f1.1" x="7.90" y="-1.60" angle="90.00" type="CarC" speed="9.94" pos="7.90" lane="link_0" slope="0.00"/>
        <vehicle id="f1.2" x="-14.64" y="-1.60" angle="90.00" type="CarA" speed="7.99" pos="35.36" lane="E0_0" slope="0.00"/>
        <vehicle id="f2.0" x="107.51" y="1.60" angle="270.00" type="CarA" speed="0.01" pos="42.49" lane="-E2_0" slope="0.00"/>
        <vehicle id="f2.1" x="114.09" y="1.60" angle="270.00" type="CarB" speed="0.20" pos="35.91" lane="-E2_0" slope="0.00"/>
        <vehicle id="test0" x="101.00" y="1.60" angle="270.00" type="test" speed="0.00" pos="49.00" lane="-E2_0" slope="0.00"/>
    </timestep>
    <timestep time="15.00">
        <vehicle id="f1.0" x="32.79" y="-1.60" angle="90.00" type="CarA" speed="7.65" pos="32.79" lane="link_0" slope="0.00"/>
        <vehicle id="f1.1" x="17.59" y="-1.60" angle="90.00" type="CarC" speed="9.69" pos="17.59" lane="link_0" slope="0.00"/>
        <vehicle id="f1.2" x="-6.18" y="-1.60" angle="90.00" type="CarA" speed="8.46" pos="43.82" lane="E0_0" slope="0.00"/>
        <vehicle id="f2.0" x="107.50" y="1.60" angle="270.00" type="CarA" speed="0.00" pos="42.50" lane="-E2_0" slope="0.00"/>
        <vehicle id="f2.1" x="114.03" y="1.60" angle="270.00" type="CarB" speed="0.06" pos="35.97" lane="-E2_0" slope="0.00"/>
        <vehicle id="test0" x="101.00" y="1.60" angle="270.00" type="test" speed="0.00" pos="49.00" lane="-E2_0" slope="0.00"/>
    </timestep>
    <timestep time="16.00">
        <vehicle id="f1.0" x="40.76" y="-1.60" angle="90.00" type="CarA" speed="7.97" pos="40.76" lane="link_0" slope="0.00"/>
        <vehicle id="f1.1" x="24.83" y="-1.60" angle="90.00" type="CarC" speed="7.25" pos="24.83" lane="link_0" slope="0.00"/>
        <vehicle id="f1.2" x="3.20" y="-1.60" angle="90.00" type="CarA" speed="9.48" pos="3.20" lane="link_0" slope="0.00"/>
        <vehicle id="f2.0" x="107.50" y="1.60" angle="270.00" type="CarA" speed="0.00" pos="42.50" lane="-E2_0" slope="0.00"/>
        <vehicle id="f2.1" x="114.01" y="1.60" angle="270.00" type="CarB" speed="0.03" pos="35.99" lane="-E2_0" slope="0.00"/>
        <vehicle id="test0" x="101.00" y="1.60" angle="270.00" type="test" speed="0.00" pos="49.00" lane="-E2_0" slope="0.00"/>
    </timestep>
    <timestep time="17.00">
        <vehicle id="f1.0" x="49.60" y="-1.60" angle="90.00" type="CarA" speed="8.84" pos="49.60" lane="link_0" slope="0.00"/>
        <vehicle id="f1.1" x="32.71" y="-1.60" angle="90.00" type="CarC" speed="7.87" pos="32.71" lane="link_0" slope="0.00"/>
        <vehicle id="f1.2" x="11.29" y="-1.60" angle="90.00" type="CarA" speed="8.09" pos="11.29" lane="link_0" slope="0.00"/>
        <vehicle id="f2.0" x="107.50" y="1.60" angle="270.00" type="CarA" speed="0.00" pos="42.50" lane="-E2_0" slope="0.00"/>
        <vehicle id="f2.1" x="114.00" y="1.60" angle="270.00" type="CarB" speed="0.00" pos="36.00" lane="-E2_0" slope="0.00"/>
        <vehicle id="f2.2" x="144.90" y="1.60" angle="270.00" type="CarC" speed="5.45" pos="5.10" lane="-E2_0" slope="0.00"/>
        <vehicle id="test0" x="101.00" y="1.60" angle="270.00" type="test" speed="0.00" pos="49.00" lane="-E2_0" slope="0.00"/>
    </timestep>
    <timestep time="18.00">
        <vehicle id="f1.0" x="59.46" y="-1.60" angle="90.00" type="CarA" speed="9.86" pos="59.46" lane="link_0" slope="0.00"/>
        <vehicle id="f1.1" x="42.22" y="-1.60" angle="90.00" type="CarC" speed="9.52" pos="42.22" lane="link_0" slope="0.00"/>
        <vehicle id="f1.2" x="18.44" y="-1.60" angle="90.00" type="CarA" speed="7.15" pos="18.44" lane="link_0" slope="0.00"/>
        <vehicle id="f1.3" x="-44.90" y="-1.60" angle="90.00" type="CarB" speed="7.45" pos="5.10" lane="E0_0" slope="0.00"/>
        <vehicle id="f2.0" x="107.50" y="1.60" angle="270.00" type="CarA" speed="0.00" pos="42.50" lane="-E2_0" slope="0.00"/>
        <vehicle id="f2.1" x="114.00" y="1.60" angle="270.00" type="CarB" speed="0.00" pos="36.00" lane="-E2_0" slope="0.00"/>
        <vehicle id="f2.2" x="136.69" y="1.60" angle="270.00" type="CarC" speed="8.21" pos="13.31" lane="-E2_0" slope="0.00"/>
        <vehicle id="f2.3" x="144.90" y="1.60" angle="270.00" type="CarD" speed="0.06" pos="5.10" lane="-E2_0" slope="0.00"/>
        <vehicle id="test0" x="101.00" y="1.60" angle="270.00" type="test" speed="0.00" pos="49.00" lane="-E2_0" slope="0.00"/>
    </timestep>
    <timestep time="19.00">
        <vehicle id="f1.0" x="68.31" y="-1.60" angle="90.00" type="CarA" speed="8.85" pos="68.31" lane="link_0" slope="0.00"/>
        <vehicle id="f1.1" x="50.76" y="-1.60" angle="90.00" type="CarC" speed="8.53" pos="50.76" lane="link_0" slope="0.00"/>
        <vehicle id="f1.2" x="27.14" y="-1.60" angle="90.00" type="CarA" speed="8.70" pos="27.14" lane="link_0" slope="0.00"/>
        <vehicle id="f1.3" x="-35.35" y="-1.60" angle="90.00" type="CarB" speed="9.55" pos="14.65" lane="E0_0" slope="0.00"/>
        <vehicle id="f2.0" x="107.50" y="1.60" angle="270.00" type="CarA" speed="0.00" pos="42.50" lane="-E2_0" slope="0.00"/>
        <vehicle id="f2.1" x="114.00" y="1.60" angle="270.00" type="CarB" speed="0.00" pos="36.00" lane="-E2_0" slope="0.00"/>
        <vehicle id="f2.2" x="126.85" y="1.60" angle="270.00" type="CarC" speed="9.84" pos="23.15" lane="-E2_0" slope="0.00"/>
        <vehicle id="f2.3" x="143.06" y="1.60" angle="270.00" type="CarD" speed="1.84" pos="6.94" lane="-E2_0" slope="0.00"/>
        <vehicle id="test0" x="101.00" y="1.60" angle="270.00" type="test" speed="0.00" pos="49.00" lane="-E2_0" slope="0.00"/>
    </timestep>
    <timestep time="20.00">
        <vehicle id="f1.0" x="77.17" y="-1.60" angle="90.00" type="CarA" speed="8.86" pos="77.17" lane="link_0" slope="0.00"/>
        <vehicle id="f1.1" x="59.58" y="-1.60" angle="90.00" type="CarC" speed="8.82" pos="59.58" lane="link_0" slope="0.00"/>
        <vehicle id="f1.2" x="36.30" y="-1.60" angle="90.00" type="CarA" speed="9.15" pos="36.30" lane="link_0" slope="0.00"/>
        <vehicle id="f1.3" x="-26.62" y="-1.60" angle="90.00" type="CarB" speed="8.73" pos="23.38" lane="E0_0" slope="0.00"/>
        <vehicle id="f2.0" x="107.50" y="1.60" angle="270.00" type="CarA" speed="0.00" pos="42.50" lane="-E2_0" slope="0.00"/>
        <vehicle id="f2.1" x="114.00" y="1.60" angle="270.00" type="CarB" speed="0.00" pos="36.00" lane="-E2_0" slope="0.00"/>
        <vehicle id="f2.2" x="121.54" y="1.60" angle="270.00" type="CarC" speed="5.31" pos="28.46" lane="-E2_0" slope="0.00"/>
        <vehicle id="f2.3" x="139.43" y="1.60" angle="270.00" type="CarD" speed="3.62" pos="10.57" lane="-E2_0" slope="0.00"/>
        <vehicle id="test0" x="100.36" y="1.60" angle="270.00" type="test" speed="0.64" pos="49.64" lane="-E2_0" slope="0.00"/>
    </timestep>
    <timestep time="21.00">
        <vehicle id="f1.0" x="85.94" y="-1.60" angle="90.00" type="CarA" speed="8.77" pos="85.94" lane="link_0" slope="0.00"/>
        <vehicle id="f1.1" x="68.14" y="-1.60" angle="90.00" type="CarC" speed="8.56" pos="68.14" lane="link_0" slope="0.00"/>
        <vehicle id="f1.2" x="43.91" y="-1.60" angle="90.00" type="CarA" speed="7.61" pos="43.91" lane="link_0" slope="0.00"/>
        <vehicle id="f1.3" x="-17.41" y="-1.60" angle="90.00" type="CarB" speed="9.21" pos="32.59" lane="E0_0" slope="0.00"/>
        <vehicle id="f2.0" x="106.94" y="1.60" angle="270.00" type="CarA" speed="0.56" pos="43.06" lane="-E2_0" slope="0.00"/>
        <vehicle id="f2.1" x="114.00" y="1.60" angle="270.00" type="CarB" speed="0.00" pos="36.00" lane="-E2_0" slope="0.00"/>
        <vehicle id="f2.2" x="120.75" y="1.60" angle="270.00" type="CarC" speed="0.79" pos="29.25" lane="-E2_0" slope="0.00"/>
        <vehicle id="f2.3" x="134.33" y="1.60" angle="270.00" type="CarD" speed="5.11" pos="15.67" lane="-E2_0" slope="0.00"/>
        <vehicle id="test0" x="99.25" y="1.60" angle="270.00" type="test" speed="1.22" pos="0.75" lane="-link_0" slope="0.00"/>
    </timestep>
    <timestep time="22.00">
        <vehicle id="f1.0" x="94.52" y="-1.60" angle="90.00" type="CarA" speed="8.58" pos="94.52" lane="link_0" slope="0.00"/>
        <vehicle id="f1.1" x="77.45" y="-1.60" angle="90.00" type="CarC" speed="9.31" pos="77.45" lane="link_0" slope="0.00"/>
        <vehicle id="f1.2" x="51.32" y="-1.60" angle="90.00" type="CarA" speed="7.41" pos="51.32" lane="link_0" slope="0.00"/>
        <vehicle id="f1.3" x="-8.43" y="-1.60" angle="90.00" type="CarB" speed="8.98" pos="41.57" lane="E0_0" slope="0.00"/>
        <vehicle id="f2.0" x="105.98" y="1.60" angle="270.00" type="CarA" speed="0.96" pos="44.02" lane="-E2_0" slope="0.00"/>
        <vehicle id="f2.1" x="113.64" y="1.60" angle="270.00" type="CarB" speed="0.37" pos="36.36" lane="-E2_0" slope="0.00"/>
        <vehicle id="f2.2" x="120.58" y="1.60" angle="270.00" type="CarC" speed="0.17" pos="29.42" lane="-E2_0" slope="0.00"/>
        <vehicle id="f2.3" x="128.53" y="1.60" angle="270.00" type="CarD" speed="5.79" pos="21.47" lane="-E2_0" slope="0.00"/>
        <vehicle id="f2.4" x="144.90" y="1.60" angle="270.00" type="CarC" speed="6.73" pos="5.10" lane="-E2_0" slope="0.00"/>
        <vehicle id="test0" x="97.41" y="1.60" angle="270.00" type="test" speed="1.84" pos="2.59" lane="-link_0" slope="0.00"/>
    </timestep>
    <timestep time="23.00">
        <vehicle id="f1.0" x="103.99" y="-1.60" angle="90.00" type="CarA" speed="9.57" pos="3.99" lane="E2_0" slope="0.00"/>
        <vehicle id="f1.1" x="85.92" y="-1.60" angle="90.00" type="CarC" speed="8.48" pos="85.92" lane="link_0" slope="0.00"/>
        <vehicle id="f1.2" x="61.01" y="-1.60" angle="90.00" type="CarA" speed="9.68" pos="61.01" lane="link_0" slope="0.00"/>
        <vehicle id="f1.3" x="1.44" y="-1.60" angle="90.00" type="CarB" speed="9.97" pos="1.44" lane="link_0" slope="0.00"/>
        <vehicle id="f2.0" x="103.85" y="1.60" angle="270.00" type="CarA" speed="2.12" pos="46.15" lane="-E2_0" slope="0.00"/>
        <vehicle id="f2.1" x="112.98" y="1.60" angle="270.00" type="CarB" speed="0.66" pos="37.02" lane="-E2_0" slope="0.00"/>
        <vehicle id="f2.2" x="120.20" y="1.60" angle="270.00" type="CarC" speed="0.39" pos="29.80" lane="-E2_0" slope="0.00"/>
        <vehicle id="f2.3" x="127.77" y="1.60" angle="270.00" type="CarD" speed="0.76" pos="22.23" lane="-E2_0" slope="0.00"/>
        <vehicle id="f2.4" x="137.51" y="1.60" angle="270.00" type="CarC" speed="7.39" pos="12.49" lane="-E2_0" slope="0.00"/>
        <vehicle id="f2.5" x="144.90" y="1.60" angle="270.00" type="CarA" speed="3.14" pos="5.10" lane="-E2_0" slope="0.00"/>
        <vehicle id="test0" x="95.01" y="1.60" angle="270.00" type="test" speed="2.40" pos="4.99" lane="-link_0" slope="0.00"/>
    </timestep>
    <timestep time="24.00">
        <vehicle id="f1.0" x="113.07" y="-1.60" angle="90.00" type="CarA" speed="9.08" pos="13.07" lane="E2_0" slope="0.00"/>
        <vehicle id="f1.1" x="95.07" y="-1.60" angle="90.00" type="CarC" speed="9.14" pos="95.07" lane="link_0" slope="0.00"/>
        <vehicle id="f1.2" x="68.75" y="-1.60" angle="90.00" type="CarA" speed="7.75" pos="68.75" lane="link_0" slope="0.00"/>
        <vehicle id="f1.3" x="9.90" y="-1.60" angle="90.00" type="CarB" speed="8.46" pos="9.90" lane="link_0" slope="0.00"/>
        <vehicle id="f2.0" x="102.11" y="1.60" angle="270.00" type="CarA" speed="1.74" pos="47.89" lane="-E2_0" slope="0.00"/>
        <vehicle id="f2.1" x="111.02" y="1.60" angle="270.00" type="CarB" speed="1.97" pos="38.98" lane="-E2_0" slope="0.00"/>
        <vehicle id="f2.2" x="119.79" y="1.60" angle="270.00" type="CarC" speed="0.41" pos="30.21" lane="-E2_0" slope="0.00"/>
        <vehicle id="f2.3" x="127.22" y="1.60" angle="270.00" type="CarD" speed="0.55" pos="22.78" lane="-E2_0" slope="0.00"/>
        <vehicle id="f2.4" x="134.65" y="1.60" angle="270.00" type="CarC" speed="2.86" pos="15.35" lane="-E2_0" slope="0.00"/>
        <vehicle id="f2.5" x="142.80" y="1.60" angle="270.00" type="CarA" speed="2.10" pos="7.20" lane="-E2_0" slope="0.00"/>
        <vehicle id="test0" x="91.88" y="1.60" angle="270.00" type="test" speed="3.12" pos="8.12" lane="-link_0" slope="0.00"/>
    </timestep>
    <timestep time="25.00">
        <vehicle id="f1.0" x="122.74" y="-1.60" angle="90.00" type="CarA" speed="9.68" pos="22.74" lane="E2_0" slope="0.00"/>
        <vehicle id="f1.1" x="103.68" y="-1.60" angle="90.00" type="CarC" speed="8.71" pos="3.68" lane="E2_0" slope="0.00"/>
        <vehicle id="f1.2" x="78.43" y="-1.60" angle="90.00" type="CarA" speed="9.67" pos="78.43" lane="link_0" slope="0.00"/>
        <vehicle id="f1.3" x="19.14" y="-1.60" angle="90.00" type="CarB" speed="9.24" pos="19.14" lane="link_0" slope="0.00"/>
        <vehicle id="f2.0" x="99.60" y="1.60" angle="270.00" type="CarA" speed="2.61" pos="0.40" lane="-link_0" slope="0.00"/>
        <vehicle id="f2.1" x="109.04" y="1.60" angle="270.00" type="CarB" speed="1.98" pos="40.96" lane="-E2_0" slope="0.00"/>
        <vehicle id="f2.2" x="118.34" y="1.60" angle="270.00" type="CarC" speed="1.45" pos="31.66" lane="-E2_0" slope="0.00"/>
        <vehicle id="f2.3" x="126.63" y="1.60" angle="270.00" type="CarD" speed="0.59" pos="23.37" lane="-E2_0" slope="0.00"/>
        <vehicle id="f2.4" x="134.07" y="1.60" angle="270.00" type="CarC" speed="0.58" pos="15.93" lane="-E2_0" slope="0.00"/>
        <vehicle id="f2.5" x="141.68" y="1.60" angle="270.00" type="CarA" speed="1.12" pos="8.32" lane="-E2_0" slope="0.00"/>
        <vehicle id="test0" x="87.99" y="1.60" angle="270.00" type="test" speed="3.90" pos="12.01" lane="-link_0" slope="0.00"/>
    </timestep>
    <timestep time="26.00">
        <vehicle id="f1.0" x="131.26" y="-1.60" angle="90.00" type="CarA" speed="8.51" pos="31.26" lane="E2_0" slope="0.00"/>
        <vehicle id="f1.1" x="113.12" y="-1.60" angle="90.00" type="CarC" speed="9.43" pos="13.12" lane="E2_0" slope="0.00"/>
        <vehicle id="f1.2" x="86.70" y="-1.60" angle="90.00" type="CarA" speed="8.27" pos="86.70" lane="link_0" slope="0.00"/>
        <vehicle id="f1.3" x="28.67" y="-1.60" angle="90.00" type="CarB" speed="9.53" pos="28.67" lane="link_0" slope="0.00"/>
        <vehicle id="f1.4" x="-44.90" y="-1.60" angle="90.00" type="CarA" speed="8.76" pos="5.10" lane="E0_0" slope="0.00"/>
        <vehicle id="f2.0" x="95.94" y="1.60" angle="270.00" type="CarA" speed="3.66" pos="4.06" lane="-link_0" slope="0.00"/>
        <vehicle id="f2.1" x="106.57" y="1.60" angle="270.00" type="CarB" speed="2.47" pos="43.43" lane="-E2_0" slope="0.00"/>
        <vehicle id="f2.2" x="116.53" y="1.60" angle="270.00" type="CarC" speed="1.82" pos="33.47" lane="-E2_0" slope="0.00"/>
        <vehicle id="f2.3" x="125.12" y="1.60" angle="270.00" type="CarD" speed="1.51" pos="24.88" lane="-E2_0" slope="0.00"/>
        <vehicle id="f2.4" x="133.35" y="1.60" angle="270.00" type="CarC" speed="0.72" pos="16.65" lane="-E2_0" slope="0.00"/>
        <vehicle id="f2.5" x="141.04" y="1.60" angle="270.00" type="CarA" speed="0.64" pos="8.96" lane="-E2_0" slope="0.00"/>
        <vehicle id="test0" x="83.57" y="1.60" angle="270.00" type="test" speed="4.42" pos="16.43" lane="-link_0" slope="0.00"/>
    </timestep>
    <timestep time="27.00">
        <vehicle id="f1.0" x="141.01" y="-1.60" angle="90.00" type="CarA" speed="9.75" pos="41.01" lane="E2_0" slope="0.00"/>
        <vehicle id="f1.1" x="123.01" y="-1.60" angle="90.00" type="CarC" speed="9.89" pos="23.01" lane="E2_0" slope="0.00"/>
        <vehicle id="f1.2" x="94.78" y="-1.60" angle="90.00" type="CarA" speed="8.07" pos="94.78" lane="link_0" slope="0.00"/>
        <vehicle id="f1.3" x="38.30" y="-1.60" angle="90.00" type="CarB" speed="9.63" pos="38.30" lane="link_0" slope="0.00"/>
        <vehicle id="f1.4" x="-36.66" y="-1.60" angle="90.00" type="CarA" speed="8.24" pos="13.34" lane="E0_0" slope="0.00"/>
        <vehicle id="f2.0" x="93.17" y="1.60" angle="270.00" type="CarA" speed="2.77" pos="6.83" lane="-link_0" slope="0.00"/>
        <vehicle id="f2.1" x="102.85" y="1.60" angle="270.00" type="CarB" speed="3.72" pos="47.15" lane="-E2_0" slope="0.00"/>
        <vehicle id="f2.2" x="113.30" y="1.60" angle="270.00" type="CarC" speed="3.22" pos="36.70" lane="-E2_0" slope="0.00"/>
        <vehicle id="f2.3" x="123.44" y="1.60" angle="270.00" type="CarD" speed="1.68" pos="26.56" lane="-E2_0" slope="0.00"/>
        <vehicle id="f2.4" x="131.69" y="1.60" angle="270.00" type="CarC" speed="1.66" pos="18.31" lane="-E2_0" slope="0.00"/>
        <vehicle id="f2.5" x="140.40" y="1.60" angle="270.00" type="CarA" speed="0.64" pos="9.60" lane="-E2_0" slope="0.00"/>
        <vehicle id="test0" x="78.63" y="1.60" angle="270.00" type="test" speed="4.94" pos="21.37" lane="-link_0" slope="0.00"/>
    </timestep>
    <timestep time="28.00">
        <vehicle id="f1.0" x="149.33" y="-1.60" angle="90.00" type="CarA" speed="8.32" pos="49.33" lane="E2_0" slope="0.00"/>
        <vehicle id="f1.1" x="132.86" y="-1.60" angle="90.00" type="CarC" speed="9.85" pos="32.86" lane="E2_0" slope="0.00"/>
        <vehicle id="f1.2" x="102.64" y="-1.60" angle="90.00" type="CarA" speed="7.97" pos="2.64" lane="E2_0" slope="0.00"/>
        <vehicle id="f1.3" x="46.36" y="-1.60" angle="90.00" type="CarB" speed="8.06" pos="46.36" lane="link_0" slope="0.00"/>
        <vehicle id="f1.4" x="-26.79" y="-1.60" angle="90.00" type="CarA" speed="9.88" pos="23.21" lane="E0_0" slope="0.00"/>
        <vehicle id="f2.0" x="89.35" y="1.60" angle="270.00" type="CarA" speed="3.82" pos="10.65" lane="-link_0" slope="0.00"/>
        <vehicle id="f2.1" x="101.01" y="1.60" angle="270.00" type="CarB" speed="1.84" pos="48.99" lane="-E2_0" slope="0.00"/>
        <vehicle id="f2.2" x="110.30" y="1.60" angle="270.00" type="CarC" speed="3.00" pos="39.70" lane="-E2_0" slope="0.00"/>
        <vehicle id="f2.3" x="120.34" y="1.60" angle="270.00" type="CarD" speed="3.10" pos="29.66" lane="-E2_0" slope="0.00"/>
        <vehicle id="f2.4" x="129.95" y="1.60" angle="270.00" type="CarC" speed="1.73" pos="20.05" lane="-E2_0" slope="0.00"/>
        <vehicle id="f2.5" x="138.60" y="1.60" angle="270.00" type="CarA" speed="1.80" pos="11.40" lane="-E2_0" slope="0.00"/>
        <vehicle id="test0" x="72.92" y="1.60" angle="270.00" type="test" speed="5.71" pos="27.08" lane="-link_0" slope="0.00"/>
    </timestep>
    <timestep time="29.00">
        <vehicle id="f1.1" x="141.82" y="-1.60" angle="90.00" type="CarC" speed="8.96" pos="41.82" lane="E2_0" slope="0.00"/>
        <vehicle id="f1.2" x="111.88" y="-1.60" angle="90.00" type="CarA" speed="9.24" pos="11.88" lane="E2_0" slope="0.00"/>
        <vehicle id="f1.3" x="54.86" y="-1.60" angle="90.00" type="CarB" speed="8.50" pos="54.86" lane="link_0" slope="0.00"/>
        <vehicle id="f1.4" x="-19.03" y="-1.60" angle="90.00" type="CarA" speed="7.75" pos="30.97" lane="E0_0" slope="0.00"/>
        <vehicle id="f2.0" x="85.04" y="1.60" angle="270.00" type="CarA" speed="4.31" pos="14.96" lane="-link_0" slope="0.00"/>
        <vehicle id="f2.1" x="97.91" y="1.60" angle="270.00" type="CarB" speed="3.20" pos="2.09" lane="-link_0" slope="0.00"/>
        <vehicle id="f2.2" x="108.75" y="1.60" angle="270.00" type="CarC" speed="1.56" pos="41.25" lane="-E2_0" slope="0.00"/>
        <vehicle id="f2.3" x="117.04" y="1.60" angle="270.00" type="CarD" speed="3.30" pos="32.96" lane="-E2_0" slope="0.00"/>
        <vehicle id="f2.4" x="128.23" y="1.60" angle="270.00" type="CarC" speed="1.72" pos="21.77" lane="-E2_0" slope="0.00"/>
        <vehicle id="f2.5" x="137.49" y="1.60" angle="270.00" type="CarA" speed="1.12" pos="12.51" lane="-E2_0" slope="0.00"/>
        <vehicle id="f2.6" x="144.90" y="1.60" angle="270.00" type="CarA" speed="0.46" pos="5.10" lane="-E2_0" slope="0.00"/>
        <vehicle id="test0" x="66.43" y="1.60" angle="270.00" type="test" speed="6.50" pos="33.57" lane="-link_0" slope="0.00"/>
    </timestep>
    <timestep time="30.00">
        <vehicle id="f1.2" x="120.28" y="-1.60" angle="90.00" type="CarA" speed="8.40" pos="20.28" lane="E2_0" slope="0.00"/>
        <vehicle id="f1.3" x="62.94" y="-1.60" angle="90.00" type="CarB" speed="8.08" pos="62.94" lane="link_0" slope="0.00"/>
        <vehicle id="f1.4" x="-11.06" y="-1.60" angle="90.00" type="CarA" speed="7.97" pos="38.94" lane="E0_0" slope="0.00"/>
        <vehicle id="f2.0" x="79.26" y="1.60" angle="270.00" type="CarA" speed="5.77" pos="20.74" lane="-link_0" slope="0.00"/>
        <vehicle id="f2.1" x="93.46" y="1.60" angle="270.00" type="CarB" speed="4.46" pos="6.54" lane="-link_0" slope="0.00"/>
        <vehicle id="f2.2" x="104.35" y="1.60" angle="270.00" type="CarC" speed="4.40" pos="45.65" lane="-E2_0" slope="0.00"/>
        <vehicle id="f2.3" x="115.78" y="1.60" angle="270.00" type="CarD" speed="1.26" pos="34.22" lane="-E2_0" slope="0.00"/>
        <vehicle id="f2.4" x="124.80" y="1.60" angle="270.00" type="CarC" speed="3.43" pos="25.20" lane="-E2_0" slope="0.00"/>
        <vehicle id="f2.5" x="135.90" y="1.60" angle="270.00" type="CarA" speed="1.59" pos="14.10" lane="-E2_0" slope="0.00"/>
        <vehicle id="f2.6" x="144.34" y="1.60" angle="270.00" type="CarA" speed="0.56" pos="5.66" lane="-E2_0" slope="0.00"/>
        <vehicle id="test0" x="59.51" y="1.60" angle="270.00" type="test" speed="6.91" pos="40.49" lane="-link_0" slope="0.00"/>
    </timestep>
    <timestep time="31.00">
        <vehicle id="f1.2" x="129.77" y="-1.60" angle="90.00" type="CarA" speed="9.49" pos="29.77" lane="E2_0" slope="0.00"/>
        <vehicle id="f1.3" x="71.92" y="-1.60" angle="90.00" type="CarB" speed="8.98" pos="71.92" lane="link_0" slope="0.00"/>
        <vehicle id="f1.4" x="-1.53" y="-1.60" angle="90.00" type="CarA" speed="9.54" pos="48.47" lane="E0_0" slope="0.00"/>
        <vehicle id="f2.0" x="72.82" y="1.60" angle="270.00" type="CarA" speed="6.44" pos="27.18" lane="-link_0" slope="0.00"/>
        <vehicle id="f2.1" x="87.21" y="1.60" angle="270.00" type="CarB" speed="6.25" pos="12.79" lane="-link_0" slope="0.00"/>
        <vehicle id="f2.2" x="100.18" y="1.60" angle="270.00" type="CarC" speed="4.17" pos="49.82" lane="-E2_0" slope="0.00"/>
        <vehicle id="f2.3" x="113.01" y="1.60" angle="270.00" type="CarD" speed="2.77" pos="36.99" lane="-E2_0" slope="0.00"/>