<?xml version="1.0" encoding="UTF-8"?>

<!-- generated on 2022-12-14 11:08:07 by Eclipse SUMO sumo Version 1.15.0
<configuration xmlns:xsi="http://www.w3.org/2001/XMLSchema-instance" xsi:noNamespaceSchemaLocation="http://sumo.dlr.de/xsd/sumoConfiguration.xsd">

    <input>
        <net-file value="data/SUMO_Traffic_Scenario/Scenario-4/network.net.xml"/>
        <route-files value="data/SUMO_Traffic_Scenario/Scenario-4/routes.rou.xml"/>
        <additional-files value="data/SUMO_Traffic_Scenario/Scenario-4/additional.add.xml"/>
    </input>

    <output>
        <fcd-output value="data/SUMO_Traffic_Scenario/Scenario-4/output/FCD-output.xml"/>
    </output>

    <time>
        <begin value="0"/>
        <end value="1200"/>
    </time>

</configuration>
-->

<fcd-export xmlns:xsi="http://www.w3.org/2001/XMLSchema-instance" xsi:noNamespaceSchemaLocation="http://sumo.dlr.de/xsd/fcd_file.xsd">
    <timestep time="0.00">
        <vehicle id="test0" x="144.90" y="1.60" angle="270.00" type="test" speed="8.91" pos="5.10" lane="-E2_0" slope="0.00"/>
    </timestep>
    <timestep time="1.00">
        <vehicle id="f1.0" x="-44.90" y="-1.60" angle="90.00" type="CarA" speed="7.12" pos="5.10" lane="E0_0" slope="0.00"/>
        <vehicle id="test0" x="135.55" y="1.60" angle="270.00" type="test" speed="9.35" pos="14.45" lane="-E2_0" slope="0.00"/>
    </timestep>
    <timestep time="2.00">
        <vehicle id="f1.0" x="-35.11" y="-1.60" angle="90.00" type="CarA" speed="9.79" pos="14.89" lane="E0_0" slope="0.00"/>
        <vehicle id="f1.1" x="-44.90" y="-1.60" angle="90.00" type="CarA" speed="4.91" pos="5.10" lane="E0_0" slope="0.00"/>
        <vehicle id="test0" x="125.55" y="1.60" angle="270.00" type="test" speed="10.00" pos="24.45" lane="-E2_0" slope="0.00"/>
    </timestep>
    <timestep time="3.00">
        <vehicle id="f1.0" x="-26.52" y="-1.60" angle="90.00" type="CarA" speed="8.58" pos="23.48" lane="E0_0" slope="0.00"/>
        <vehicle id="f1.1" x="-37.11" y="-1.60" angle="90.00" type="CarA" speed="7.79" pos="12.89" lane="E0_0" slope="0.00"/>
        <vehicle id="f1.2" x="-44.90" y="-1.60" angle="90.00" type="CarC" speed="0.44" pos="5.10" lane="E0_0" slope="0.00"/>
        <vehicle id="test0" x="115.68" y="1.60" angle="270.00" type="test" speed="9.87" pos="34.32" lane="-E2_0" slope="0.00"/>
    </timestep>
    <timestep time="4.00">
        <vehicle id="f1.0" x="-17.27" y="-1.60" angle="90.00" type="CarA" speed="9.26" pos="32.73" lane="E0_0" slope="0.00"/>
        <vehicle id="f1.1" x="-30.34" y="-1.60" angle="90.00" type="CarA" speed="6.77" pos="19.66" lane="E0_0" slope="0.00"/>
        <vehicle id="f1.2" x="-41.87" y="-1.60" angle="90.00" type="CarC" speed="3.03" pos="8.13" lane="E0_0" slope="0.00"/>
        <vehicle id="test0" x="106.34" y="1.60" angle="270.00" type="test" speed="9.34" pos="43.66" lane="-E2_0" slope="0.00"/>
    </timestep>
    <timestep time="5.00">
        <vehicle id="f1.0" x="-9.14" y="-1.60" angle="90.00" type="CarA" speed="8.13" pos="40.86" lane="E0_0" slope="0.00"/>
        <vehicle id="f1.1" x="-21.98" y="-1.60" angle="90.00" type="CarA" speed="8.36" pos="28.02" lane="E0_0" slope="0.00"/>
        <vehicle id="f1.2" x="-36.38" y="-1.60" angle="90.00" type="CarC" speed="5.50" pos="13.62" lane="E0_0" slope="0.00"/>
        <vehicle id="f1.3" x="-44.90" y="-1.60" angle="90.00" type="CarB" speed="2.52" pos="5.10" lane="E0_0" slope="0.00"/>
        <vehicle id="f2.0" x="144.90" y="1.60" angle="270.00" type="CarD" speed="0.06" pos="5.10" lane="-E2_0" slope="0.00"/>
        <vehicle id="test0" x="101.50" y="1.60" angle="270.00" type="test" speed="4.84" pos="48.50" lane="-E2_0" slope="0.00"/>
    </timestep>
    <timestep time="6.00">
        <vehicle id="f1.0" x="0.75" y="-1.60" angle="90.00" type="CarA" speed="9.98" pos="0.75" lane="link_0" slope="0.00"/>
        <vehicle id="f1.1" x="-16.60" y="-1.60" angle="90.00" type="CarA" speed="5.39" pos="33.40" lane="E0_0" slope="0.00"/>
        <vehicle id="f1.2" x="-29.41" y="-1.60" angle="90.00" type="CarC" speed="6.97" pos="20.59" lane="E0_0" slope="0.00"/>
        <vehicle id="f1.3" x="-43.22" y="-1.60" angle="90.00" type="CarB" speed="1.68" pos="6.78" lane="E0_0" slope="0.00"/>
        <vehicle id="f2.0" x="143.71" y="1.60" angle="270.00" type="CarD" speed="1.19" pos="6.29" lane="-E2_0" slope="0.00"/>
        <vehicle id="test0" x="101.04" y="1.60" angle="270.00" type="test" speed="0.47" pos="48.96" lane="-E2_0" slope="0.00"/>
    </timestep>
    <timestep time="7.00">
        <vehicle id="f1.0" x="10.57" y="-1.60" angle="90.00" type="CarA" speed="9.82" pos="10.57" lane="link_0" slope="0.00"/>
        <vehicle id="f1.1" x="-8.11" y="-1.60" angle="90.00" type="CarA" speed="8.49" pos="41.89" lane="E0_0" slope="0.00"/>
        <vehicle id="f1.2" x="-24.69" y="-1.60" angle="90.00" type="CarC" speed="4.71" pos="25.31" lane="E0_0" slope="0.00"/>
        <vehicle id="f1.3" x="-37.63" y="-1.60" angle="90.00" type="CarB" speed="5.59" pos="12.37" lane="E0_0" slope="0.00"/>
        <vehicle id="f1.4" x="-44.90" y="-1.60" angle="90.00" type="CarA" speed="2.37" pos="5.10" lane="E0_0" slope="0.00"/>
        <vehicle id="f2.0" x="140.99" y="1.60" angle="270.00" type="CarD" speed="2.72" pos="9.01" lane="-E2_0" slope="0.00"/>
        <vehicle id="test0" x="101.02" y="1.60" angle="270.00" type="test" speed="0.02" pos="48.98" lane="-E2_0" slope="0.00"/>
    </timestep>
    <timestep time="8.00">
        <vehicle id="f1.0" x="19.70" y="-1.60" angle="90.00" type="CarA" speed="9.14" pos="19.70" lane="link_0" slope="0.00"/>
        <vehicle id="f1.1" x="1.13" y="-1.60" angle="90.00" type="CarA" speed="9.34" pos="1.13" lane="link_0" slope="0.00"/>
        <vehicle id="f1.2" x="-17.76" y="-1.60" angle="90.00" type="CarC" speed="6.93" pos="32.24" lane="E0_0" slope="0.00"/>
        <vehicle id="f1.3" x="-32.83" y="-1.60" angle="90.00" type="CarB" speed="4.80" pos="17.17" lane="E0_0" slope="0.00"/>
        <vehicle id="f1.4" x="-42.80" y="-1.60" angle="90.00" type="CarA" speed="2.10" pos="7.20" lane="E0_0" slope="0.00"/>
        <vehicle id="f2.0" x="136.40" y="1.60" angle="270.00" type="CarD" speed="4.59" pos="13.60" lane="-E2_0" slope="0.00"/>
        <vehicle id="f2.1" x="144.90" y="1.60" angle="270.00" type="CarB" speed="2.00" pos="5.10" lane="-E2_0" slope="0.00"/>
        <vehicle id="test0" x="101.01" y="1.60" angle="270.00" type="test" speed="0.01" pos="48.99" lane="-E2_0" slope="0.00"/>
    </timestep>
    <timestep time="9.00">
        <vehicle id="f1.0" x="27.35" y="-1.60" angle="90.00" type="CarA" speed="7.65" pos="27.35" lane="link_0" slope="0.00"/>
        <vehicle id="f1.1" x="10.58" y="-1.60" angle="90.00" type="CarA" speed="9.46" pos="10.58" lane="link_0" slope="0.00"/>
        <vehicle id="f1.2" x="-8.79" y="-1.60" angle="90.00" type="CarC" speed="8.98" pos="41.21" lane="E0_0" slope="0.00"/>
        <vehicle id="f1.3" x="-26.37" y="-1.60" angle="90.00" type="CarB" speed="6.46" pos="23.63" lane="E0_0" slope="0.00"/>
        <vehicle id="f1.4" x="-40.09" y="-1.60" angle="90.00" type="CarA" speed="2.71" pos="9.91" lane="E0_0" slope="0.00"/>
        <vehicle id="f2.0" x="130.32" y="1.60" angle="270.00" type="CarD" speed="6.09" pos="19.68" lane="-E2_0" slope="0.00"/>
        <vehicle id="f2.1" x="143.54" y="1.60" angle="270.00" type="CarB" speed="1.36" pos="6.46" lane="-E2_0" slope="0.00"/>
        <vehicle id="test0" x="101.00" y="1.60" angle="270.00" type="test" speed="0.01" pos="49.00" lane="-E2_0" slope="0.00"/>
    </timestep>
    <timestep time="10.00">
        <vehicle id="f1.0" x="35.32" y="-1.60" angle="90.00" type="CarA" speed="7.97" pos="35.32" lane="link_0" slope="0.00"/>
        <vehicle id="f1.1" x="17.56" y="-1.60" angle="90.00" type="CarA" speed="6.98" pos="17.56" lane="link_0" slope="0.00"/>
        <vehicle id="f1.2" x="1.09" y="-1.60" angle="90.00" type="CarC" speed="9.98" pos="1.09" lane="link_0" slope="0.00"/>
        <vehicle id="f1.3" x="-18.76" y="-1.60" angle="90.00" type="CarB" speed="7.61" pos="31.24" lane="E0_0" slope="0.00"/>
        <vehicle id="f1.4" x="-33.99" y="-1.60" angle="90.00" type="CarA" speed="6.10" pos="16.01" lane="E0_0" slope="0.00"/>
        <vehicle id="f1.5" x="-44.90" y="-1.60" angle="90.00" type="CarC" speed="5.13" pos="5.10" lane="E0_0" slope="0.00"/>
        <vehicle id="f2.0" x="122.26" y="1.60" angle="270.00" type="CarD" speed="8.06" pos="27.74" lane="-E2_0" slope="0.00"/>
        <vehicle id="f2.1" x="138.69" y="1.60" angle="270.00" type="CarB" speed="4.86" pos="11.31" lane="-E2_0" slope="0.00"/>
        <vehicle id="test0" x="101.00" y="1.60" angle="270.00" type="test" speed="0.00" pos="49.00" lane="-E2_0" slope="0.00"/>
    </timestep>
    <timestep time="11.00">
        <vehicle id="f1.0" x="44.17" y="-1.60" angle="90.00" type="CarA" speed="8.84" pos="44.17" lane="link_0" slope="0.00"/>
        <vehicle id="f1.1" x="25.24" y="-1.60" angle="90.00" type="CarA" speed="7.68" pos="25.24" lane="link_0" slope="0.00"/>
        <vehicle id="f1.2" x="9.14" y="-1.60" angle="90.00" type="CarC" speed="8.05" pos="9.14" lane="link_0" slope="0.00"/>
        <vehicle id="f1.3" x="-10.56" y="-1.60" angle="90.00" type="CarB" speed="8.20" pos="39.44" lane="E0_0" slope="0.00"/>
        <vehicle id="f1.4" x="-28.91" y="-1.60" angle="90.00" type="CarA" speed="5.08" pos="21.09" lane="E0_0" slope="0.00"/>
        <vehicle id="f1.5" x="-39.92" y="-1.60" angle="90.00" type="CarC" speed="4.98" pos="10.08" lane="E0_0" slope="0.00"/>
        <vehicle id="f2.0" x="112.88" y="1.60" angle="270.00" type="CarD" speed="9.38" pos="37.12" lane="-E2_0" slope="0.00"/>
        <vehicle id="f2.1" x="131.23" y="1.60" angle="270.00" type="CarB" speed="7.46" pos="18.77" lane="-E2_0" slope="0.00"/>
        <vehicle id="f2.2" x="144.90" y="1.60" angle="270.00" type="CarB" speed="7.31" pos="5.10" lane="-E2_0" slope="0.00"/>
        <vehicle id="test0" x="101.00" y="1.60" angle="270.00" type="test" speed="0.00" pos="49.00" lane="-E2_0" slope="0.00"/>
    </timestep>
    <timestep time="12.00">
        <vehicle id="f1.0" x="54.03" y="-1.60" angle="90.00" type="CarA" speed="9.86" pos="54.03" lane="link_0" slope="0.00"/>
        <vehicle id="f1.1" x="34.85" y="-1.60" angle="90.00" type="CarA" speed="9.61" pos="34.85" lane="link_0" slope="0.00"/>
        <vehicle id="f1.2" x="16.71" y="-1.60" angle="90.00" type="CarC" speed="7.57" pos="16.71" lane="link_0" slope="0.00"/>
        <vehicle id="f1.3" x="-1.96" y="-1.60" angle="90.00" type="CarB" speed="8.60" pos="48.04" lane="E0_0" slope="0.00"/>
        <vehicle id="f1.4" x="-21.01" y="-1.60" angle="90.00" type="CarA" speed="7.90" pos="28.99" lane="E0_0" slope="0.00"/>
        <vehicle id="f1.5" x="-36.11" y="-1.60" angle="90.00" type="CarC" speed="3.82" pos="13.89" lane="E0_0" slope="0.00"/>
        <vehicle id="f1.6" x="-44.90" y="-1.60" angle="90.00" type="CarB" speed="2.29" pos="5.10" lane="E0_0" slope="0.00"/>
        <vehicle id="f2.0" x="108.28" y="1.60" angle="270.00" type="CarD" speed="4.60" pos="41.72" lane="-E2_0" slope="0.00"/>
        <vehicle id="f2.1" x="122.74" y="1.60" angle="270.00" type="CarB" speed="8.49" pos="27.26" lane="-E2_0" slope="0.00"/>
        <vehicle id="f2.2" x="138.02" y="1.60" angle="270.00" type="CarB" speed="6.88" pos="11.98" lane="-E2_0" slope="0.00"/>
        <vehicle id="f2.3" x="144.90" y="1.60" angle="270.00" type="CarA" speed="2.37" pos="5.10" lane="-E2_0" slope="0.00"/>
        <vehicle id="test0" x="101.00" y="1.60" angle="270.00" type="test" speed="0.00" pos="49.00" lane="-E2_0" slope="0.00"/>
    </timestep>
    <timestep time="13.00">
        <vehicle id="f1.0" x="62.88" y="-1.60" angle="90.00" type="CarA" speed="8.85" pos="62.88" lane="link_0" slope="0.00"/>
        <vehicle id="f1.1" x="42.40" y="-1.60" angle="90.00" type="CarA" speed="7.56" pos="42.40" lane="link_0" slope="0.00"/>
        <vehicle id="f1.2" x="25.96" y="-1.60" angle="90.00" type="CarC" speed="9.25" pos="25.96" lane="link_0" slope="0.00"/>
        <vehicle id="f1.3" x="5.41" y="-1.60" angle="90.00" type="CarB" speed="7.47" pos="5.41" lane="link_0" slope="0.00"/>
        <vehicle id="f1.4" x="-13.58" y="-1.60" angle="90.00" type="CarA" speed="7.42" pos="36.42" lane="E0_0" slope="0.00"/>
        <vehicle id="f1.5" x="-29.80" y="-1.60" angle="90.00" type="CarC" speed="6.31" pos="20.20" lane="E0_0" slope="0.00"/>
        <vehicle id="f1.6" x="-42.97" y="-1.60" angle="90.00" type="CarB" speed="1.93" pos="7.03" lane="E0_0" slope="0.00"/>
        <vehicle id="f2.0" x="107.51" y="1.60" angle="270.00" type="CarD" speed="0.77" pos="42.49" lane="-E2_0" slope="0.00"/>
        <vehicle id="f2.1" x="117.55" y="1.60" angle="270.00" type="CarB" speed="5.19" pos="32.45" lane="-E2_0" slope="0.00"/>
        <vehicle id="f2.2" x="130.23" y="1.60" angle="270.00" type="CarB" speed="7.79" pos="19.77" lane="-E2_0" slope="0.00"/>
        <vehicle id="f2.3" x="142.59" y="1.60" angle="270.00" type="CarA" speed="2.31" pos="7.41" lane="-E2_0" slope="0.00"/>
        <vehicle id="test0" x="101.00" y="1.60" angle="270.00" type="test" speed="0.00" pos="49.00" lane="-E2_0" slope="0.00"/>
    </timestep>
    <timestep time="14.00">
        <vehicle id="f1.0" x="71.73" y="-1.60" angle="90.00" type="CarA" speed="8.86" pos="71.73" lane="link_0" slope="0.00"/>
        <vehicle id="f1.1" x="50.52" y="-1.60" angle="90.00" type="CarA" speed="8.12" pos="50.52" lane="link_0" slope="0.00"/>
        <vehicle id="f1.2" x="34.41" y="-1.60" angle="90.00" type="CarC" speed="8.44" pos="34.41" lane="link_0" slope="0.00"/>
        <vehicle id="f1.3" x="14.43" y="-1.60" angle="90.00" type="CarB" speed="9.02" pos="14.43" lane="link_0" slope="0.00"/>
        <vehicle id="f1.4" x="-5.45" y="-1.60" angle="90.00" type="CarA" speed="8.14" pos="44.55" lane="E0_0" slope="0.00"/>
        <vehicle id="f1.5" x="-21.46" y="-1.60" angle="90.00" type="CarC" speed="8.34" pos="28.54" lane="E0_0" slope="0.00"/>
        <vehicle id="f1.6" x="-38.41" y="-1.60" angle="90.00" type="CarB" speed="4.56" pos="11.59" lane="E0_0" slope="0.00"/>
        <vehicle id="f2.0" x="107.50" y="1.60" angle="270.00" type="CarD" speed="0.01" pos="42.50" lane="-E2_0" slope="0.00"/>
        <vehicle id="f2.1" x="115.15" y="1.60" angle="270.00" type="CarB" speed="2.40" pos="34.85" lane="-E2_0" slope="0.00"/>
        <vehicle id="f2.2" x="124.88" y="1.60" angle="270.00" type="CarB" speed="5.35" pos="25.12" lane="-E2_0" slope="0.00"/>
        <vehicle id="f2.3" x="138.26" y="1.60" angle="270.00" type="CarA" speed="4.33" pos="11.74" lane="-E2_0" slope="0.00"/>
        <vehicle id="test0" x="101.00" y="1.60" angle="270.00" type="test" speed="0.00" pos="49.00" lane="-E2_0" slope="0.00"/>
    </timestep>
    <timestep time="15.00">
        <vehicle id="f1.0" x="79.38" y="-1.60" angle="90.00" type="CarA" speed="7.64" pos="79.38" lane="link_0" slope="0.00"/>
        <vehicle id="f1.1" x="58.48" y="-1.60" angle="90.00" type="CarA" speed="7.96" pos="58.48" lane="link_0" slope="0.00"/>
        <vehicle id="f1.2" x="42.42" y="-1.60" angle="90.00" type="CarC" speed="8.01" pos="42.42" lane="link_0" slope="0.00"/>
        <vehicle id="f1.3" x="23.15" y="-1.60" angle="90.00" type="CarB" speed="8.72" pos="23.15" lane="link_0" slope="0.00"/>
        <vehicle id="f1.4" x="3.03" y="-1.60" angle="90.00" type="CarA" speed="8.57" pos="3.03" lane="link_0" slope="0.00"/>
        <vehicle id="f1.5" x="-13.14" y="-1.60" angle="90.00" type="CarC" speed="8.32" pos="36.86" lane="E0_0" slope="0.00"/>
        <vehicle id="f1.6" x="-30.64" y="-1.60" angle="90.00" type="CarB" speed="7.77" pos="19.36" lane="E0_0" slope="0.00"/>
        <vehicle id="f1.7" x="-44.90" y="-1.60" angle="90.00" type="CarD" speed="7.64" pos="5.10" lane="E0_0" slope="0.00"/>
        <vehicle id="f2.0" x="107.50" y="1.60" angle="270.00" type="CarD" speed="0.00" pos="42.50" lane="-E2_0" slope="0.00"/>
        <vehicle id="f2.1" x="114.44" y="1.60" angle="270.00" type="CarB" speed="0.71" pos="35.56" lane="-E2_0" slope="0.00"/>
        <vehicle id="f2.2" x="123.05" y="1.60" angle="270.00" type="CarB" speed="1.83" pos="26.95" lane="-E2_0" slope="0.00"/>
        <vehicle id="f2.3" x="133.14" y="1.60" angle="270.00" type="CarA" speed="5.12" pos="16.86" lane="-E2_0" slope="0.00"/>
        <vehicle id="test0" x="101.00" y="1.60" angle="270.00" type="test" speed="0.00" pos="49.00" lane="-E2_0" slope="0.00"/>
    </timestep>
    <timestep time="16.00">
        <vehicle id="f1.0" x="86.38" y="-1.60" angle="90.00" type="CarA" speed="7.00" pos="86.38" lane="link_0" slope="0.00"/>
        <vehicle id="f1.1" x="67.73" y="-1.60" angle="90.00" type="CarA" speed="9.24" pos="67.73" lane="link_0" slope="0.00"/>
        <vehicle id="f1.2" x="50.09" y="-1.60" angle="90.00" type="CarC" speed="7.67" pos="50.09" lane="link_0" slope="0.00"/>
        <vehicle id="f1.3" x="32.15" y="-1.60" angle="90.00" type="CarB" speed="9.01" pos="32.15" lane="link_0" slope="0.00"/>
        <vehicle id="f1.4" x="10.86" y="-1.60" angle="90.00" type="CarA" speed="7.84" pos="10.86" lane="link_0" slope="0.00"/>
        <vehicle id="f1.5" x="-4.87" y="-1.60" angle="90.00" type="CarC" speed="8.27" pos="45.13" lane="E0_0" slope="0.00"/>
        <vehicle id="f1.6" x="-23.35" y="-1.60" angle="90.00" type="CarB" speed="7.29" pos="26.65" lane="E0_0" slope="0.00"/>
        <vehicle id="f1.7" x="-37.73" y="-1.60" angle="90.00" type="CarD" speed="7.17" pos="12.27" lane="E0_0" slope="0.00"/>
        <vehicle id="f1.8" x="-44.90" y="-1.60" angle="90.00" type="CarC" speed="1.83" pos="5.10" lane="E0_0" slope="0.00"/>
        <vehicle id="f2.0" x="107.50" y="1.60" angle="270.00" type="CarD" speed="0.00" pos="42.50" lane="-E2_0" slope="0.00"/>
        <vehicle id="f2.1" x="114.04" y="1.60" angle="270.00" type="CarB" speed="0.40" pos="35.96" lane="-E2_0" slope="0.00"/>
        <vehicle id="f2.2" x="120.95" y="1.60" angle="270.00" type="CarB" speed="2.10" pos="29.05" lane="-E2_0" slope="0.00"/>
        <vehicle id="f2.3" x="131.02" y="1.60" angle="270.00" type="CarA" speed="2.12" pos="18.98" lane="-E2_0" slope="0.00"/>
        <vehicle id="test0" x="101.00" y="1.60" angle="270.00" type="test" speed="0.00" pos="49.00" lane="-E2_0" slope="0.00"/>
    </timestep>
    <timestep time="17.00">
        <vehicle id="f1.0" x="91.36" y="-1.60" angle="90.00" type="CarA" speed="4.98" pos="91.36" lane="link_0" slope="0.00"/>
        <vehicle id="f1.1" x="74.51" y="-1.60" angle="90.00" type="CarA" speed="6.79" pos="74.51" lane="link_0" slope="0.00"/>
        <vehicle id="f1.2" x="58.80" y="-1.60" angle="90.00" type="CarC" speed="8.71" pos="58.80" lane="link_0" slope="0.00"/>
        <vehicle id="f1.3" x="40.59" y="-1.60" angle="90.00" type="CarB" speed="8.44" pos="40.59" lane="link_0" slope="0.00"/>
        <vehicle id="f1.4" x="19.62" y="-1.60" angle="90.00" type="CarA" speed="8.76" pos="19.62" lane="link_0" slope="0.00"/>
        <vehicle id="f1.5" x="2.92" y="-1.60" angle="90.00" type="CarC" speed="7.89" pos="2.92" lane="link_0" slope="0.00"/>
        <vehicle id="f1.6" x="-16.00" y="-1.60" angle="90.00" type="CarB" speed="7.34" pos="34.00" lane="E0_0" slope="0.00"/>
        <vehicle id="f1.7" x="-30.60" y="-1.60" angle="90.00" type="CarD" speed="7.13" pos="19.40" lane="E0_0" slope="0.00"/>
        <vehicle id="f1.8" x="-43.19" y="-1.60" angle="90.00" type="CarC" speed="1.71" pos="6.81" lane="E0_0" slope="0.00"/>
        <vehicle id="f2.0" x="107.50" y="1.60" angle="270.00" type="CarD" speed="0.00" pos="42.50" lane="-E2_0" slope="0.00"/>
        <vehicle id="f2.1" x="114.01" y="1.60" angle="270.00" type="CarB" speed="0.03" pos="35.99" lane="-E2_0" slope="0.00"/>
        <vehicle id="f2.2" x="120.62" y="1.60" angle="270.00" type="CarB" speed="0.33" pos="29.38" lane="-E2_0" slope="0.00"/>
        <vehicle id="f2.3" x="128.74" y="1.60" angle="270.00" type="CarA" speed="2.28" pos="21.26" lane="-E2_0" slope="0.00"/>
        <vehicle id="test0" x="101.00" y="1.60" angle="270.00" type="test" speed="0.00" pos="49.00" lane="-E2_0" slope="0.00"/>
    </timestep>
    <timestep time="18.00">
        <vehicle id="f1.0" x="94.95" y="-1.60" angle="90.00" type="CarA" speed="3.59" pos="94.95" lane="link_0" slope="0.00"/>
        <vehicle id="f1.1" x="81.03" y="-1.60" angle="90.00" type="CarA" speed="6.52" pos="81.03" lane="link_0" slope="0.00"/>
        <vehicle id="f1.2" x="65.64" y="-1.60" angle="90.00" type="CarC" speed="6.84" pos="65.64" lane="link_0" slope="0.00"/>
        <vehicle id="f1.3" x="49.37" y="-1.60" angle="90.00" type="CarB" speed="8.77" pos="49.37" lane="link_0" slope="0.00"/>
        <vehicle id="f1.4" x="26.92" y="-1.60" angle="90.00" type="CarA" speed="7.30" pos="26.92" lane="link_0" slope="0.00"/>
        <vehicle id="f1.5" x="10.94" y="-1.60" angle="90.00" type="CarC" speed="8.02" pos="10.94" lane="link_0" slope="0.00"/>
        <vehicle id="f1.6" x="-8.15" y="-1.60" angle="90.00" type="CarB" speed="7.86" pos="41.85" lane="E0_0" slope="0.00"/>
        <vehicle id="f1.7" x="-23.76" y="-1.60" angle="90.00" type="CarD" speed="6.84" pos="26.24" lane="E0_0" slope="0.00"/>
        <vehicle id="f1.8" x="-39.35" y="-1.60" angle="90.00" type="CarC" speed="3.83" pos="10.65" lane="E0_0" slope="0.00"/>
        <vehicle id="f2.0" x="107.50" y="1.60" angle="270.00" type="CarD" speed="0.00" pos="42.50" lane="-E2_0" slope="0.00"/>
        <vehicle id="f2.1" x="114.00" y="1.60" angle="270.00" type="CarB" speed="0.00" pos="36.00" lane="-E2_0" slope="0.00"/>
        <vehicle id="f2.2" x="120.54" y="1.60" angle="270.00" type="CarB" speed="0.08" pos="29.46" lane="-E2_0" slope="0.00"/>
        <vehicle id="f2.3" x="127.32" y="1.60" angle="270.00" type="CarA" speed="1.43" pos="22.68" lane="-E2_0" slope="0.00"/>
        <vehicle id="f2.4" x="144.90" y="1.60" angle="270.00" type="CarA" speed="1.29" pos="5.10" lane="-E2_0" slope="0.00"/>
        <vehicle id="test0" x="101.00" y="1.60" angle="270.00" type="test" speed="0.00" pos="49.00" lane="-E2_0" slope="0.00"/>
    </timestep>
    <timestep time="19.00">
        <vehicle id="f1.0" x="97.15" y="-1.60" angle="90.00" type="CarA" speed="2.20" pos="97.15" lane="link_0" slope="0.00"/>
        <vehicle id="f1.1" x="84.56" y="-1.60" angle="90.00" type="CarA" speed="3.52" pos="84.56" lane="link_0" slope="0.00"/>
        <vehicle id="f1.2" x="72.59" y="-1.60" angle="90.00" type="CarC" speed="6.94" pos="72.59" lane="link_0" slope="0.00"/>
        <vehicle id="f1.3" x="57.10" y="-1.60" angle="90.00" type="CarB" speed="7.74" pos="57.10" lane="link_0" slope="0.00"/>
        <vehicle id="f1.4" x="35.69" y="-1.60" angle="90.00" type="CarA" speed="8.76" pos="35.69" lane="link_0" slope="0.00"/>
        <vehicle id="f1.5" x="18.52" y="-1.60" angle="90.00" type="CarC" speed="7.58" pos="18.52" lane="link_0" slope="0.00"/>
        <vehicle id="f1.6" x="-0.84" y="-1.60" angle="90.00" type="CarB" speed="7.31" pos="49.16" lane="E0_0" slope="0.00"/>
        <vehicle id="f1.7" x="-15.81" y="-1.60" angle="90.00" type="CarD" speed="7.95" pos="34.19" lane="E0_0" slope="0.00"/>
        <vehicle id="f1.8" x="-32.76" y="-1.60" angle="90.00" type="CarC" speed="6.59" pos="17.24" lane="E0_0" slope="0.00"/>
        <vehicle id="f1.9" x="-44.90" y="-1.60" angle="90.00" type="CarA" speed="1.25" pos="5.10" lane="E0_0" slope="0.00"/>
        <vehicle id="f2.0" x="107.50" y="1.60" angle="270.00" type="CarD" speed="0.00" pos="42.50" lane="-E2_0" slope="0.00"/>
        <vehicle id="f2.1" x="114.00" y="1.60" angle="270.00" type="CarB" speed="0.00" pos="36.00" lane="-E2_0" slope="0.00"/>
        <vehicle id="f2.2" x="120.51" y="1.60" angle="270.00" type="CarB" speed="0.03" pos="29.49" lane="-E2_0" slope="0.00"/>
        <vehicle id="f2.3" x="127.14" y="1.60" angle="270.00" type="CarA" speed="0.18" pos="22.86" lane="-E2_0" slope="0.00"/>
        <vehicle id="f2.4" x="140.15" y="1.60" angle="270.00" type="CarA" speed="4.75" pos="9.85" lane="-E2_0" slope="0.00"/>
        <vehicle id="test0" x="101.00" y="1.60" angle="270.00" type="test" speed="0.00" pos="49.00" lane="-E2_0" slope="0.00"/>
    </timestep>
    <timestep time="20.00">
        <vehicle id="f1.0" x="104.11" y="-1.60" angle="90.00" type="CarA" speed="7.06" pos="4.11" lane="E2_0" slope="0.00"/>
        <vehicle id="f1.1" x="87.24" y="-1.60" angle="90.00" type="CarA" speed="2.68" pos="87.24" lane="link_0" slope="0.00"/>
        <vehicle id="f1.2" x="77.13" y="-1.60" angle="90.00" type="CarC" speed="4.55" pos="77.13" lane="link_0" slope="0.00"/>
        <vehicle id="f1.3" x="64.06" y="-1.60" angle="90.00" type="CarB" speed="6.96" pos="64.06" lane="link_0" slope="0.00"/>
        <vehicle id="f1.4" x="44.61" y="-1.60" angle="90.00" type="CarA" speed="8.92" pos="44.61" lane="link_0" slope="0.00"/>
        <vehicle id="f1.5" x="27.13" y="-1.60" angle="90.00" type="CarC" speed="8.62" pos="27.13" lane="link_0" slope="0.00"/>
        <vehicle id="f1.6" x="6.90" y="-1.60" angle="90.00" type="CarB" speed="7.84" pos="6.90" lane="link_0" slope="0.00"/>
        <vehicle id="f1.7" x="-8.30" y="-1.60" angle="90.00" type="CarD" speed="7.51" pos="41.70" lane="E0_0" slope="0.00"/>
        <vehicle id="f1.8" x="-24.17" y="-1.60" angle="90.00" type="CarC" speed="8.59" pos="25.83" lane="E0_0" slope="0.00"/>
        <vehicle id="f1.9" x="-39.90" y="-1.60" angle="90.00" type="CarA" speed="5.00" pos="10.10" lane="E0_0" slope="0.00"/>
        <vehicle id="f2.0" x="107.50" y="1.60" angle="270.00" type="CarD" speed="0.00" pos="42.50" lane="-E2_0" slope="0.00"/>
        <vehicle id="f2.1" x="114.00" y="1.60" angle="270.00" type="CarB" speed="0.00" pos="36.00" lane="-E2_0" slope="0.00"/>
        <vehicle id="f2.2" x="120.51" y="1.60" angle="270.00" type="CarB" speed="0.01" pos="29.49" lane="-E2_0" slope="0.00"/>
        <vehicle id="f2.3" x="127.07" y="1.60" angle="270.00" type="CarA" speed="0.06" pos="22.93" lane="-E2_0" slope="0.00"/>
        <vehicle id="f2.4" x="135.46" y="1.60" angle="270.00" type="CarA" speed="4.69" pos="14.54" lane="-E2_0" slope="0.00"/>
        <vehicle id="test0" x="100.50" y="1.60" angle="270.00" type="test" speed="0.50" pos="49.50" lane="-E2_0" slope="0.00"/>
    </timestep>
    <timestep time="21.00">
        <vehicle id="f1.0" x="113.19" y="-1.60" angle="90.00" type="CarA" speed="9.08" pos="13.19" lane="E2_0" slope="0.00"/>
        <vehicle id="f1.1" x="93.53" y="-1.60" angle="90.00" type="CarA" speed="6.29" pos="93.53" lane="link_0" slope="0.00"/>
        <vehicle id="f1.10" x="-44.90" y="-1.60" angle="90.00" type="CarA" speed="2.64" pos="5.10" lane="E0_0" slope="0.00"/>
        <vehicle id="f1.2" x="79.29" y="-1.60" angle="90.00" type="CarC" speed="2.15" pos="79.29" lane="link_0" slope="0.00"/>
        <vehicle id="f1.3" x="67.99" y="-1.60" angle="90.00" type="CarB" speed="3.93" pos="67.99" lane="link_0" slope="0.00"/>
        <vehicle id="f1.4" x="50.96" y="-1.60" angle="90.00" type="CarA" speed="6.35" pos="50.96" lane="link_0" slope="0.00"/>
        <vehicle id="f1.5" x="36.68" y="-1.60" angle="90.00" type="CarC" speed="9.54" pos="36.68" lane="link_0" slope="0.00"/>
        <vehicle id="f1.6" x="16.58" y="-1.60" angle="90.00" type="CarB" speed="9.68" pos="16.58" lane="link_0" slope="0.00"/>
        <vehicle id="f1.7" x="-0.15" y="-1.60" angle="90.00" type="CarD" speed="8.15" pos="49.85" lane="E0_0" slope="0.00"/>
        <vehicle id="f1.8" x="-17.46" y="-1.60" angle="90.00" type="CarC" speed="6.71" pos="32.54" lane="E0_0" slope="0.00"/>
        <vehicle id="f1.9" x="-34.89" y="-1.60" angle="90.00" type="CarA" speed="5.02" pos="15.11" lane="E0_0" slope="0.00"/>
        <vehicle id="f2.0" x="107.13" y="1.60" angle="270.00" type="CarD" speed="0.38" pos="42.87" lane="-E2_0" slope="0.00"/>
        <vehicle id="f2.1" x="114.00" y="1.60" angle="270.00" type="CarB" speed="0.00" pos="36.00" lane="-E2_0" slope="0.00"/>
        <vehicle id="f2.2" x="120.50" y="1.60" angle="270.00" type="CarB" speed="0.00" pos="29.50" lane="-E2_0" slope="0.00"/>
        <vehicle id="f2.3" x="127.01" y="1.60" angle="270.00" type="CarA" speed="0.06" pos="22.99" lane="-E2_0" slope="0.00"/>
        <vehicle id="f2.4" x="133.77" y="1.60" angle="270.00" type="CarA" speed="1.69" pos="16.23" lane="-E2_0" slope="0.00"/>
        <vehicle id="test0" x="99.53" y="1.60" angle="270.00" type="test" speed="1.07" pos="0.47" lane="-link_0" slope="0.00"/>
    </timestep>
    <timestep time="22.00">
        <vehicle id="f1.0" x="122.86" y="-1.60" angle="90.00" type="CarA" speed="9.68" pos="22.86" lane="E2_0" slope="0.00"/>
        <vehicle id="f1.1" x="101.68" y="-1.60" angle="90.00" type="CarA" speed="8.24" pos="1.68" lane="E2_0" slope="0.00"/>
        <vehicle id="f1.10" x="-42.64" y="-1.60" angle="90.00" type="CarA" speed="2.26" pos="7.36" lane="E0_0" slope="0.00"/>
        <vehicle id="f1.2" x="83.10" y="-1.60" angle="90.00" type="CarC" speed="3.81" pos="83.10" lane="link_0" slope="0.00"/>
        <vehicle id="f1.3" x="71.63" y="-1.60" angle="90.00" type="CarB" speed="3.64" pos="71.63" lane="link_0" slope="0.00"/>
        <vehicle id="f1.4" x="56.59" y="-1.60" angle="90.00" type="CarA" speed="5.63" pos="56.59" lane="link_0" slope="0.00"/>
        <vehicle id="f1.5" x="42.53" y="-1.60" angle="90.00" type="CarC" speed="5.85" pos="42.53" lane="link_0" slope="0.00"/>
        <vehicle id="f1.6" x="25.07" y="-1.60" angle="90.00" type="CarB" speed="8.49" pos="25.07" lane="link_0" slope="0.00"/>
        <vehicle id="f1.7" x="8.75" y="-1.60" angle="90.00" type="CarD" speed="9.00" pos="8.75" lane="link_0" slope="0.00"/>
        <vehicle id="f1.8" x="-9.37" y="-1.60" angle="90.00" type="CarC" speed="8.09" pos="40.63" lane="E0_0" slope="0.00"/>
        <vehicle id="f1.9" x="-29.02" y="-1.60" angle="90.00" type="CarA" speed="5.87" pos="20.98" lane="E0_0" slope="0.00"/>
        <vehicle id="f2.0" x="106.21" y="1.60" angle="270.00" type="CarD" speed="0.92" pos="43.79" lane="-E2_0" slope="0.00"/>
        <vehicle id="f2.1" x="113.69" y="1.60" angle="270.00" type="CarB" speed="0.31" pos="36.31" lane="-E2_0" slope="0.00"/>