<?xml version="1.0" encoding="UTF-8"?>

<!-- generated on 2023-01-18 21:29:50 by Eclipse SUMO sumo Version 1.15.0
<configuration xmlns:xsi="http://www.w3.org/2001/XMLSchema-instance" xsi:noNamespaceSchemaLocation="http://sumo.dlr.de/xsd/sumoConfiguration.xsd">

    <input>
        <net-file value="data/SUMO_Traffic_Scenario/Scenario-9/network.net.xml"/>
        <route-files value="data/SUMO_Traffic_Scenario/Scenario-9/routes.rou.xml"/>
        <additional-files value="data/SUMO_Traffic_Scenario/Scenario-9/additional.add.xml"/>
    </input>

    <output>
        <fcd-output value="data/SUMO_Traffic_Scenario/Scenario-9/output/FCD-output.xml"/>
    </output>

    <time>
        <begin value="0"/>
        <end value="1200"/>
    </time>

</configuration>
-->

<fcd-export xmlns:xsi="http://www.w3.org/2001/XMLSchema-instance" xsi:noNamespaceSchemaLocation="http://sumo.dlr.de/xsd/fcd_file.xsd">
    <timestep time="0.00">
        <vehicle id="test0" x="144.90" y="1.60" angle="270.00" type="test" speed="6.24" pos="5.10" lane="-E2_0" slope="0.00"/>
    </timestep>
    <timestep time="1.00">
        <vehicle id="f1.0" x="-44.90" y="-1.60" angle="90.00" type="CarA" speed="7.12" pos="5.10" lane="E0_0" slope="0.00"/>
        <vehicle id="test0" x="138.26" y="1.60" angle="270.00" type="test" speed="6.64" pos="11.74" lane="-E2_0" slope="0.00"/>
    </timestep>
    <timestep time="2.00">
        <vehicle id="f1.0" x="-35.11" y="-1.60" angle="90.00" type="CarA" speed="9.79" pos="14.89" lane="E0_0" slope="0.00"/>
        <vehicle id="f1.1" x="-44.90" y="-1.60" angle="90.00" type="CarA" speed="0.45" pos="5.10" lane="E0_0" slope="0.00"/>
        <vehicle id="test0" x="131.26" y="1.60" angle="270.00" type="test" speed="7.00" pos="18.74" lane="-E2_0" slope="0.00"/>
    </timestep>
    <timestep time="3.00">
        <vehicle id="f1.0" x="-26.52" y="-1.60" angle="90.00" type="CarA" speed="8.58" pos="23.48" lane="E0_0" slope="0.00"/>
        <vehicle id="f1.1" x="-39.54" y="-1.60" angle="90.00" type="CarA" speed="5.36" pos="10.46" lane="E0_0" slope="0.00"/>
        <vehicle id="test0" x="124.39" y="1.60" angle="270.00" type="test" speed="6.87" pos="25.61" lane="-E2_0" slope="0.00"/>
    </timestep>
    <timestep time="4.00">
        <vehicle id="f1.0" x="-17.27" y="-1.60" angle="90.00" type="CarA" speed="9.26" pos="32.73" lane="E0_0" slope="0.00"/>
        <vehicle id="f1.1" x="-31.96" y="-1.60" angle="90.00" type="CarA" speed="7.58" pos="18.04" lane="E0_0" slope="0.00"/>
        <vehicle id="f1.2" x="-44.90" y="-1.60" angle="90.00" type="CarC" speed="4.91" pos="5.10" lane="E0_0" slope="0.00"/>
        <vehicle id="test0" x="117.44" y="1.60" angle="270.00" type="test" speed="6.95" pos="32.56" lane="-E2_0" slope="0.00"/>
    </timestep>
    <timestep time="5.00">
        <vehicle id="f1.0" x="-7.95" y="-1.60" angle="90.00" type="CarA" speed="9.32" pos="42.05" lane="E0_0" slope="0.00"/>
        <vehicle id="f1.1" x="-24.85" y="-1.60" angle="90.00" type="CarA" speed="7.12" pos="25.15" lane="E0_0" slope="0.00"/>
        <vehicle id="f1.2" x="-37.95" y="-1.60" angle="90.00" type="CarC" speed="6.95" pos="12.05" lane="E0_0" slope="0.00"/>
        <vehicle id="test0" x="110.62" y="1.60" angle="270.00" type="test" speed="6.83" pos="39.38" lane="-E2_0" slope="0.00"/>
    </timestep>
    <timestep time="6.00">
        <vehicle id="f1.0" x="1.28" y="-1.60" angle="90.00" type="CarA" speed="9.33" pos="1.28" lane="link_0" slope="0.00"/>
        <vehicle id="f1.1" x="-15.28" y="-1.60" angle="90.00" type="CarA" speed="9.57" pos="34.72" lane="E0_0" slope="0.00"/>
        <vehicle id="f1.2" x="-32.38" y="-1.60" angle="90.00" type="CarC" speed="5.57" pos="17.62" lane="E0_0" slope="0.00"/>
        <vehicle id="f1.3" x="-44.90" y="-1.60" angle="90.00" type="CarB" speed="5.30" pos="5.10" lane="E0_0" slope="0.00"/>
        <vehicle id="test0" x="103.67" y="1.60" angle="270.00" type="test" speed="6.94" pos="46.33" lane="-E2_0" slope="0.00"/>
    </timestep>
    <timestep time="7.00">
        <vehicle id="f1.0" x="11.10" y="-1.60" angle="90.00" type="CarA" speed="9.82" pos="11.10" lane="link_0" slope="0.00"/>
        <vehicle id="f1.1" x="-7.66" y="-1.60" angle="90.00" type="CarA" speed="7.61" pos="42.34" lane="E0_0" slope="0.00"/>
        <vehicle id="f1.2" x="-24.81" y="-1.60" angle="90.00" type="CarC" speed="7.57" pos="25.19" lane="E0_0" slope="0.00"/>
        <vehicle id="f1.3" x="-40.81" y="-1.60" angle="90.00" type="CarB" speed="4.09" pos="9.19" lane="E0_0" slope="0.00"/>
        <vehicle id="test0" x="101.23" y="1.60" angle="270.00" type="test" speed="2.44" pos="48.77" lane="-E2_0" slope="0.00"/>
    </timestep>
    <timestep time="8.00">
        <vehicle id="f1.0" x="20.24" y="-1.60" angle="90.00" type="CarA" speed="9.14" pos="20.24" lane="link_0" slope="0.00"/>
        <vehicle id="f1.1" x="0.35" y="-1.60" angle="90.00" type="CarA" speed="8.11" pos="0.35" lane="link_0" slope="0.00"/>
        <vehicle id="f1.2" x="-15.74" y="-1.60" angle="90.00" type="CarC" speed="9.07" pos="34.26" lane="E0_0" slope="0.00"/>
        <vehicle id="f1.3" x="-33.32" y="-1.60" angle="90.00" type="CarB" speed="7.50" pos="16.68" lane="E0_0" slope="0.00"/>
        <vehicle id="test0" x="101.11" y="1.60" angle="270.00" type="test" speed="0.12" pos="48.89" lane="-E2_0" slope="0.00"/>
    </timestep>
    <timestep time="9.00">
        <vehicle id="f1.0" x="27.88" y="-1.60" angle="90.00" type="CarA" speed="7.65" pos="27.88" lane="link_0" slope="0.00"/>
        <vehicle id="f1.1" x="9.93" y="-1.60" angle="90.00" type="CarA" speed="9.58" pos="9.93" lane="link_0" slope="0.00"/>
        <vehicle id="f1.2" x="-7.63" y="-1.60" angle="90.00" type="CarC" speed="8.12" pos="42.37" lane="E0_0" slope="0.00"/>
        <vehicle id="f1.3" x="-24.69" y="-1.60" angle="90.00" type="CarB" speed="8.63" pos="25.31" lane="E0_0" slope="0.00"/>
        <vehicle id="test0" x="101.03" y="1.60" angle="270.00" type="test" speed="0.08" pos="48.97" lane="-E2_0" slope="0.00"/>
    </timestep>
    <timestep time="10.00">
        <vehicle id="f1.0" x="35.86" y="-1.60" angle="90.00" type="CarA" speed="7.97" pos="35.86" lane="link_0" slope="0.00"/>
        <vehicle id="f1.1" x="17.30" y="-1.60" angle="90.00" type="CarA" speed="7.37" pos="17.30" lane="link_0" slope="0.00"/>
        <vehicle id="f1.2" x="1.94" y="-1.60" angle="90.00" type="CarC" speed="9.66" pos="1.94" lane="link_0" slope="0.00"/>
        <vehicle id="f1.3" x="-17.40" y="-1.60" angle="90.00" type="CarB" speed="7.29" pos="32.60" lane="E0_0" slope="0.00"/>
        <vehicle id="test0" x="101.01" y="1.60" angle="270.00" type="test" speed="0.01" pos="48.99" lane="-E2_0" slope="0.00"/>
    </timestep>
    <timestep time="11.00">
        <vehicle id="f1.0" x="44.70" y="-1.60" angle="90.00" type="CarA" speed="8.84" pos="44.70" lane="link_0" slope="0.00"/>
        <vehicle id="f1.1" x="25.17" y="-1.60" angle="90.00" type="CarA" speed="7.87" pos="25.17" lane="link_0" slope="0.00"/>
        <vehicle id="f1.2" x="9.63" y="-1.60" angle="90.00" type="CarC" speed="7.70" pos="9.63" lane="link_0" slope="0.00"/>
        <vehicle id="f1.3" x="-8.33" y="-1.60" angle="90.00" type="CarB" speed="9.08" pos="41.67" lane="E0_0" slope="0.00"/>
        <vehicle id="test0" x="101.00" y="1.60" angle="270.00" type="test" speed="0.01" pos="49.00" lane="-E2_0" slope="0.00"/>
    </timestep>
    <timestep time="12.00">
        <vehicle id="f1.0" x="54.56" y="-1.60" angle="90.00" type="CarA" speed="9.86" pos="54.56" lane="link_0" slope="0.00"/>
        <vehicle id="f1.1" x="34.93" y="-1.60" angle="90.00" type="CarA" speed="9.76" pos="34.93" lane="link_0" slope="0.00"/>
        <vehicle id="f1.2" x="17.02" y="-1.60" angle="90.00" type="CarC" speed="7.39" pos="17.02" lane="link_0" slope="0.00"/>
        <vehicle id="f1.3" x="-0.59" y="-1.60" angle="90.00" type="CarB" speed="7.73" pos="49.41" lane="E0_0" slope="0.00"/>
        <vehicle id="f1.4" x="-44.90" y="-1.60" angle="90.00" type="CarA" speed="0.44" pos="5.10" lane="E0_0" slope="0.00"/>
        <vehicle id="test0" x="101.00" y="1.60" angle="270.00" type="test" speed="0.00" pos="49.00" lane="-E2_0" slope="0.00"/>
    </timestep>
    <timestep time="13.00">
        <vehicle id="f1.0" x="63.41" y="-1.60" angle="90.00" type="CarA" speed="8.85" pos="63.41" lane="link_0" slope="0.00"/>
        <vehicle id="f1.1" x="42.49" y="-1.60" angle="90.00" type="CarA" speed="7.56" pos="42.49" lane="link_0" slope="0.00"/>
        <vehicle id="f1.2" x="26.27" y="-1.60" angle="90.00" type="CarC" speed="9.25" pos="26.27" lane="link_0" slope="0.00"/>
        <vehicle id="f1.3" x="7.81" y="-1.60" angle="90.00" type="CarB" speed="8.51" pos="7.81" lane="link_0" slope="0.00"/>
        <vehicle id="f1.4" x="-41.23" y="-1.60" angle="90.00" type="CarA" speed="3.67" pos="8.77" lane="E0_0" slope="0.00"/>
        <vehicle id="test0" x="101.00" y="1.60" angle="270.00" type="test" speed="0.00" pos="49.00" lane="-E2_0" slope="0.00"/>
    </timestep>
    <timestep time="14.00">
        <vehicle id="f1.0" x="72.27" y="-1.60" angle="90.00" type="CarA" speed="8.86" pos="72.27" lane="link_0" slope="0.00"/>
        <vehicle id="f1.1" x="50.61" y="-1.60" angle="90.00" type="CarA" speed="8.12" pos="50.61" lane="link_0" slope="0.00"/>
        <vehicle id="f1.2" x="34.61" y="-1.60" angle="90.00" type="CarC" speed="8.33" pos="34.61" lane="link_0" slope="0.00"/>
        <vehicle id="f1.3" x="16.23" y="-1.60" angle="90.00" type="CarB" speed="8.42" pos="16.23" lane="link_0" slope="0.00"/>
        <vehicle id="f1.4" x="-32.68" y="-1.60" angle="90.00" type="CarA" speed="8.55" pos="17.32" lane="E0_0" slope="0.00"/>
        <vehicle id="f1.5" x="-44.90" y="-1.60" angle="90.00" type="CarC" speed="2.48" pos="5.10" lane="E0_0" slope="0.00"/>
        <vehicle id="test0" x="101.00" y="1.60" angle="270.00" type="test" speed="0.00" pos="49.00" lane="-E2_0" slope="0.00"/>
    </timestep>
    <timestep time="15.00">
        <vehicle id="f1.0" x="79.91" y="-1.60" angle="90.00" type="CarA" speed="7.64" pos="79.91" lane="link_0" slope="0.00"/>
        <vehicle id="f1.1" x="58.57" y="-1.60" angle="90.00" type="CarA" speed="7.96" pos="58.57" lane="link_0" slope="0.00"/>
        <vehicle id="f1.2" x="42.56" y="-1.60" angle="90.00" type="CarC" speed="7.96" pos="42.56" lane="link_0" slope="0.00"/>
        <vehicle id="f1.3" x="24.38" y="-1.60" angle="90.00" type="CarB" speed="8.15" pos="24.38" lane="link_0" slope="0.00"/>
        <vehicle id="f1.4" x="-24.92" y="-1.60" angle="90.00" type="CarA" speed="7.75" pos="25.08" lane="E0_0" slope="0.00"/>
        <vehicle id="f1.5" x="-40.64" y="-1.60" angle="90.00" type="CarC" speed="4.26" pos="9.36" lane="E0_0" slope="0.00"/>
        <vehicle id="test0" x="101.00" y="1.60" angle="270.00" type="test" speed="0.00" pos="49.00" lane="-E2_0" slope="0.00"/>
    </timestep>
    <timestep time="16.00">
        <vehicle id="f1.0" x="86.77" y="-1.60" angle="90.00" type="CarA" speed="6.86" pos="86.77" lane="link_0" slope="0.00"/>
        <vehicle id="f1.1" x="67.93" y="-1.60" angle="90.00" type="CarA" speed="9.36" pos="67.93" lane="link_0" slope="0.00"/>
        <vehicle id="f1.2" x="50.20" y="-1.60" angle="90.00" type="CarC" speed="7.64" pos="50.20" lane="link_0" slope="0.00"/>
        <vehicle id="f1.3" x="33.01" y="-1.60" angle="90.00" type="CarB" speed="8.62" pos="33.01" lane="link_0" slope="0.00"/>
        <vehicle id="f1.4" x="-15.39" y="-1.60" angle="90.00" type="CarA" speed="9.54" pos="34.61" lane="E0_0" slope="0.00"/>
        <vehicle id="f1.5" x="-34.03" y="-1.60" angle="90.00" type="CarC" speed="6.62" pos="15.97" lane="E0_0" slope="0.00"/>
        <vehicle id="test0" x="101.00" y="1.60" angle="270.00" type="test" speed="0.00" pos="49.00" lane="-E2_0" slope="0.00"/>
    </timestep>
    <timestep time="17.00">
        <vehicle id="f1.0" x="92.42" y="-1.60" angle="90.00" type="CarA" speed="5.65" pos="92.42" lane="link_0" slope="0.00"/>
        <vehicle id="f1.1" x="74.39" y="-1.60" angle="90.00" type="CarA" speed="6.47" pos="74.39" lane="link_0" slope="0.00"/>
        <vehicle id="f1.2" x="59.04" y="-1.60" angle="90.00" type="CarC" speed="8.84" pos="59.04" lane="link_0" slope="0.00"/>
        <vehicle id="f1.3" x="39.73" y="-1.60" angle="90.00" type="CarB" speed="6.73" pos="39.73" lane="link_0" slope="0.00"/>
        <vehicle id="f1.4" x="-5.90" y="-1.60" angle="90.00" type="CarA" speed="9.48" pos="44.10" lane="E0_0" slope="0.00"/>
        <vehicle id="f1.5" x="-25.19" y="-1.60" angle="90.00" type="CarC" speed="8.84" pos="24.81" lane="E0_0" slope="0.00"/>
        <vehicle id="test0" x="101.00" y="1.60" angle="270.00" type="test" speed="0.00" pos="49.00" lane="-E2_0" slope="0.00"/>
    </timestep>
    <timestep time="18.00">
        <vehicle id="f1.0" x="96.90" y="-1.60" angle="90.00" type="CarA" speed="4.48" pos="96.90" lane="link_0" slope="0.00"/>
        <vehicle id="f1.1" x="81.17" y="-1.60" angle="90.00" type="CarA" speed="6.78" pos="81.17" lane="link_0" slope="0.00"/>
        <vehicle id="f1.2" x="65.67" y="-1.60" angle="90.00" type="CarC" speed="6.62" pos="65.67" lane="link_0" slope="0.00"/>
        <vehicle id="f1.3" x="48.82" y="-1.60" angle="90.00" type="CarB" speed="9.08" pos="48.82" lane="link_0" slope="0.00"/>
        <vehicle id="f1.4" x="2.15" y="-1.60" angle="90.00" type="CarA" speed="8.15" pos="2.15" lane="link_0" slope="0.00"/>
        <vehicle id="f1.5" x="-16.08" y="-1.60" angle="90.00" type="CarC" speed="9.11" pos="33.92" lane="E0_0" slope="0.00"/>
        <vehicle id="f1.6" x="-44.90" y="-1.60" angle="90.00" type="CarB" speed="5.45" pos="5.10" lane="E0_0" slope="0.00"/>
        <vehicle id="test0" x="101.00" y="1.60" angle="270.00" type="test" speed="0.00" pos="49.00" lane="-E2_0" slope="0.00"/>
    </timestep>
    <timestep time="19.00">
        <vehicle id="f1.0" x="98.38" y="-1.60" angle="90.00" type="CarA" speed="1.48" pos="98.38" lane="link_0" slope="0.00"/>
        <vehicle id="f1.1" x="87.28" y="-1.60" angle="90.00" type="CarA" speed="6.11" pos="87.28" lane="link_0" slope="0.00"/>
        <vehicle id="f1.2" x="72.34" y="-1.60" angle="90.00" type="CarC" speed="6.67" pos="72.34" lane="link_0" slope="0.00"/>
        <vehicle id="f1.3" x="54.86" y="-1.60" angle="90.00" type="CarB" speed="6.04" pos="54.86" lane="link_0" slope="0.00"/>
        <vehicle id="f1.4" x="10.27" y="-1.60" angle="90.00" type="CarA" speed="8.12" pos="10.27" lane="link_0" slope="0.00"/>
        <vehicle id="f1.5" x="-6.60" y="-1.60" angle="90.00" type="CarC" speed="9.48" pos="43.40" lane="E0_0" slope="0.00"/>
        <vehicle id="f1.6" x="-36.07" y="-1.60" angle="90.00" type="CarB" speed="8.83" pos="13.93" lane="E0_0" slope="0.00"/>
        <vehicle id="test0" x="101.00" y="1.60" angle="270.00" type="test" speed="0.00" pos="49.00" lane="-E2_0" slope="0.00"/>
    </timestep>
    <timestep time="20.00">
        <vehicle id="f1.0" x="102.36" y="-1.60" angle="90.00" type="CarA" speed="4.08" pos="2.36" lane="E2_0" slope="0.00"/>
        <vehicle id="f1.1" x="90.39" y="-1.60" angle="90.00" type="CarA" speed="3.11" pos="90.39" lane="link_0" slope="0.00"/>
        <vehicle id="f1.2" x="79.56" y="-1.60" angle="90.00" type="CarC" speed="7.22" pos="79.56" lane="link_0" slope="0.00"/>
        <vehicle id="f1.3" x="62.19" y="-1.60" angle="90.00" type="CarB" speed="7.33" pos="62.19" lane="link_0" slope="0.00"/>
        <vehicle id="f1.4" x="18.91" y="-1.60" angle="90.00" type="CarA" speed="8.64" pos="18.91" lane="link_0" slope="0.00"/>
        <vehicle id="f1.5" x="2.46" y="-1.60" angle="90.00" type="CarC" speed="9.16" pos="2.46" lane="link_0" slope="0.00"/>
        <vehicle id="f1.6" x="-26.38" y="-1.60" angle="90.00" type="CarB" speed="9.69" pos="23.62" lane="E0_0" slope="0.00"/>
        <vehicle id="test0" x="100.31" y="1.60" angle="270.00" type="test" speed="0.69" pos="49.69" lane="-E2_0" slope="0.00"/>
    </timestep>
    <timestep time="21.00">
        <vehicle id="f1.0" x="110.52" y="-1.60" angle="90.00" type="CarA" speed="8.16" pos="10.52" lane="E2_0" slope="0.00"/>
        <vehicle id="f1.1" x="95.08" y="-1.60" angle="90.00" type="CarA" speed="4.69" pos="95.08" lane="link_0" slope="0.00"/>
        <vehicle id="f1.2" x="82.66" y="-1.60" angle="90.00" type="CarC" speed="3.10" pos="82.66" lane="link_0" slope="0.00"/>
        <vehicle id="f1.3" x="69.64" y="-1.60" angle="90.00" type="CarB" speed="7.45" pos="69.64" lane="link_0" slope="0.00"/>
        <vehicle id="f1.4" x="28.28" y="-1.60" angle="90.00" type="CarA" speed="9.37" pos="28.28" lane="link_0" slope="0.00"/>
        <vehicle id="f1.5" x="11.62" y="-1.60" angle="90.00" type="CarC" speed="9.15" pos="11.62" lane="link_0" slope="0.00"/>
        <vehicle id="f1.6" x="-17.76" y="-1.60" angle="90.00" type="CarB" speed="8.62" pos="32.24" lane="E0_0" slope="0.00"/>
        <vehicle id="test0" x="99.01" y="1.60" angle="270.00" type="test" speed="1.40" pos="0.99" lane="-link_0" slope="0.00"/>
    </timestep>
    <timestep time="22.00">
        <vehicle id="f1.0" x="120.19" y="-1.60" angle="90.00" type="CarA" speed="9.68" pos="20.19" lane="E2_0" slope="0.00"/>
        <vehicle id="f1.1" x="101.60" y="-1.60" angle="90.00" type="CarA" speed="6.62" pos="1.60" lane="E2_0" slope="0.00"/>
        <vehicle id="f1.2" x="87.29" y="-1.60" angle="90.00" type="CarC" speed="4.63" pos="87.29" lane="link_0" slope="0.00"/>
        <vehicle id="f1.3" x="73.08" y="-1.60" angle="90.00" type="CarB" speed="3.45" pos="73.08" lane="link_0" slope="0.00"/>
        <vehicle id="f1.4" x="36.58" y="-1.60" angle="90.00" type="CarA" speed="8.30" pos="36.58" lane="link_0" slope="0.00"/>
        <vehicle id="f1.5" x="20.21" y="-1.60" angle="90.00" type="CarC" speed="8.60" pos="20.21" lane="link_0" slope="0.00"/>
        <vehicle id="f1.6" x="-8.40" y="-1.60" angle="90.00" type="CarB" speed="9.36" pos="41.60" lane="E0_0" slope="0.00"/>
        <vehicle id="test0" x="96.98" y="1.60" angle="270.00" type="test" speed="2.02" pos="3.02" lane="-link_0" slope="0.00"/>
    </timestep>
    <timestep time="23.00">
        <vehicle id="f1.0" x="128.71" y="-1.60" angle="90.00" type="CarA" speed="8.51" pos="28.71" lane="E2_0" slope="0.00"/>
        <vehicle id="f1.1" x="110.66" y="-1.60" angle="90.00" type="CarA" speed="9.06" pos="10.66" lane="E2_0" slope="0.00"/>
        <vehicle id="f1.2" x="94.15" y="-1.60" angle="90.00" type="CarC" speed="6.86" pos="94.15" lane="link_0" slope="0.00"/>
        <vehicle id="f1.3" x="78.83" y="-1.60" angle="90.00" type="CarB" speed="5.75" pos="78.83" lane="link_0" slope="0.00"/>
        <vehicle id="f1.4" x="44.82" y="-1.60" angle="90.00" type="CarA" speed="8.24" pos="44.82" lane="link_0" slope="0.00"/>
        <vehicle id="f1.5" x="27.96" y="-1.60" angle="90.00" type="CarC" speed="7.75" pos="27.96" lane="link_0" slope="0.00"/>
        <vehicle id="f1.6" x="0.82" y="-1.60" angle="90.00" type="CarB" speed="9.32" pos="0.82" lane="link_0" slope="0.00"/>
        <vehicle id="test0" x="94.39" y="1.60" angle="270.00" type="test" speed="2.59" pos="5.61" lane="-link_0" slope="0.00"/>
    </timestep>
    <timestep time="24.00">
        <vehicle id="f1.0" x="138.46" y="-1.60" angle="90.00" type="CarA" speed="9.75" pos="38.46" lane="E2_0" slope="0.00"/>
        <vehicle id="f1.1" x="119.87" y="-1.60" angle="90.00" type="CarA" speed="9.22" pos="19.87" lane="E2_0" slope="0.00"/>
        <vehicle id="f1.2" x="103.06" y="-1.60" angle="90.00" type="CarC" speed="9.02" pos="3.06" lane="E2_0" slope="0.00"/>
        <vehicle id="f1.3" x="85.46" y="-1.60" angle="90.00" type="CarB" speed="6.63" pos="85.46" lane="link_0" slope="0.00"/>
        <vehicle id="f1.4" x="52.79" y="-1.60" angle="90.00" type="CarA" speed="7.97" pos="52.79" lane="link_0" slope="0.00"/>
        <vehicle id="f1.5" x="36.13" y="-1.60" angle="90.00" type="CarC" speed="8.17" pos="36.13" lane="link_0" slope="0.00"/>
        <vehicle id="f1.6" x="9.59" y="-1.60" angle="90.00" type="CarB" speed="8.77" pos="9.59" lane="link_0" slope="0.00"/>
        <vehicle id="test0" x="91.09" y="1.60" angle="270.00" type="test" speed="3.31" pos="8.91" lane="-link_0" slope="0.00"/>
    </timestep>
    <timestep time="25.00">
        <vehicle id="f1.0" x="146.78" y="-1.60" angle="90.00" type="CarA" speed="8.32" pos="46.78" lane="E2_0" slope="0.00"/>
        <vehicle id="f1.1" x="129.62" y="-1.60" angle="90.00" type="CarA" speed="9.75" pos="29.62" lane="E2_0" slope="0.00"/>
        <vehicle id="f1.2" x="111.97" y="-1.60" angle="90.00" type="CarC" speed="8.90" pos="11.97" lane="E2_0" slope="0.00"/>
        <vehicle id="f1.3" x="94.16" y="-1.60" angle="90.00" type="CarB" speed="8.70" pos="94.16" lane="link_0" slope="0.00"/>
        <vehicle id="f1.4" x="61.11" y="-1.60" angle="90.00" type="CarA" speed="8.32" pos="61.11" lane="link_0" slope="0.00"/>
        <vehicle id="f1.5" x="44.30" y="-1.60" angle="90.00" type="CarC" speed="8.17" pos="44.30" lane="link_0" slope="0.00"/>
        <vehicle id="f1.6" x="19.01" y="-1.60" angle="90.00" type="CarB" speed="9.42" pos="19.01" lane="link_0" slope="0.00"/>
        <vehicle id="f1.7" x="-44.90" y="-1.60" angle="90.00" type="CarD" speed="14.90" pos="5.10" lane="E0_0" slope="0.00"/>
        <vehicle id="test0" x="87.00" y="1.60" angle="270.00" type="test" speed="4.08" pos="13.00" lane="-link_0" slope="0.00"/>
    </timestep>
    <timestep time="26.00">
        <vehicle id="f1.1" x="137.94" y="-1.60" angle="90.00" type="CarA" speed="8.32" pos="37.94" lane="E2_0" slope="0.00"/>
        <vehicle id="f1.2" x="121.66" y="-1.60" angle="90.00" type="CarC" speed="9.69" pos="21.66" lane="E2_0" slope="0.00"/>
        <vehicle id="f1.3" x="101.79" y="-1.60" angle="90.00" type="CarB" speed="7.73" pos="1.79" lane="E2_0" slope="0.00"/>
        <vehicle id="f1.4" x="69.91" y="-1.60" angle="90.00" type="CarA" speed="8.80" pos="69.91" lane="link_0" slope="0.00"/>
        <vehicle id="f1.5" x="52.48" y="-1.60" angle="90.00" type="CarC" speed="8.18" pos="52.48" lane="link_0" slope="0.00"/>
        <vehicle id="f1.6" x="27.20" y="-1.60" angle="90.00" type="CarB" speed="8.19" pos="27.20" lane="link_0" slope="0.00"/>
        <vehicle id="f1.7" x="-28.39" y="-1.60" angle="90.00" type="CarD" speed="16.51" pos="21.61" lane="E0_0" slope="0.00"/>
        <vehicle id="test0" x="82.40" y="1.60" angle="270.00" type="test" speed="4.60" pos="17.60" lane="-link_0" slope="0.00"/>
    </timestep>
    <timestep time="27.00">
        <vehicle id="f1.1" x="146.34" y="-1.60" angle="90.00" type="CarA" speed="8.40" pos="46.34" lane="E2_0" slope="0.00"/>
        <vehicle id="f1.2" x="130.40" y="-1.60" angle="90.00" type="CarC" speed="8.74" pos="30.40" lane="E2_0" slope="0.00"/>
        <vehicle id="f1.3" x="110.97" y="-1.60" angle="90.00" type="CarB" speed="9.18" pos="10.97" lane="E2_0" slope="0.00"/>
        <vehicle id="f1.4" x="77.83" y="-1.60" angle="90.00" type="CarA" speed="7.93" pos="77.83" lane="link_0" slope="0.00"/>
        <vehicle id="f1.5" x="61.84" y="-1.60" angle="90.00" type="CarC" speed="9.36" pos="61.84" lane="link_0" slope="0.00"/>
        <vehicle id="f1.6" x="36.44" y="-1.60" angle="90.00" type="CarB" speed="9.25" pos="36.44" lane="link_0" slope="0.00"/>
        <vehicle id="f1.7" x="-10.48" y="-1.60" angle="90.00" type="CarD" speed="17.91" pos="39.52" lane="E0_0" slope="0.00"/>
        <vehicle id="f1.8" x="-44.90" y="-1.60" angle="90.00" type="CarC" speed="0.06" pos="5.10" lane="E0_0" slope="0.00"/>
        <vehicle id="test0" x="77.08" y="1.60" angle="270.00" type="test" speed="5.32" pos="22.92" lane="-link_0" slope="0.00"/>
    </timestep>
    <timestep time="28.00">
        <vehicle id="f1.2" x="139.29" y="-1.60" angle="90.00" type="CarC" speed="8.90" pos="39.29" lane="E2_0" slope="0.00"/>
        <vehicle id="f1.3" x="120.30" y="-1.60" angle="90.00" type="CarB" speed="9.33" pos="20.30" lane="E2_0" slope="0.00"/>
        <vehicle id="f1.4" x="87.81" y="-1.60" angle="90.00" type="CarA" speed="9.98" pos="87.81" lane="link_0" slope="0.00"/>
        <vehicle id="f1.5" x="70.28" y="-1.60" angle="90.00" type="CarC" speed="8.44" pos="70.28" lane="link_0" slope="0.00"/>
        <vehicle id="f1.6" x="45.06" y="-1.60" angle="90.00" type="CarB" speed="8.62" pos="45.06" lane="link_0" slope="0.00"/>
        <vehicle id="f1.7" x="8.59" y="-1.60" angle="90.00" type="CarD" speed="19.17" pos="8.59" lane="link_0" slope="0.00"/>
        <vehicle id="f1.8" x="-42.74" y="-1.60" angle="90.00" type="CarC" speed="2.16" pos="7.26" lane="E0_0" slope="0.00"/>
        <vehicle id="test0" x="71.23" y="1.60" angle="270.00" type="test" speed="5.85" pos="28.77" lane="-link_0" slope="0.00"/>
    </timestep>
    <timestep time="29.00">
        <vehicle id="f1.2" x="147.81" y="-1.60" angle="90.00" type="CarC" speed="8.52" pos="47.81" lane="E2_0" slope="0.00"/>
        <vehicle id="f1.3" x="128.03" y="-1.60" angle="90.00" type="CarB" speed="7.73" pos="28.03" lane="E2_0" slope="0.00"/>
        <vehicle id="f1.4" x="97.23" y="-1.60" angle="90.00" type="CarA" speed="9.42" pos="97.23" lane="link_0" slope="0.00"/>
        <vehicle id="f1.5" x="79.85" y="-1.60" angle="90.00" type="CarC" speed="9.57" pos="79.85" lane="link_0" slope="0.00"/>
        <vehicle id="f1.6" x="54.32" y="-1.60" angle="90.00" type="CarB" speed="9.26" pos="54.32" lane="link_0" slope="0.00"/>
        <vehicle id="f1.7" x="25.02" y="-1.60" angle="90.00" type="CarD" speed="16.44" pos="25.02" lane="link_0" slope="0.00"/>
        <vehicle id="f1.8" x="-38.27" y="-1.60" angle="90.00" type="CarC" speed="4.47" pos="11.73" lane="E0_0" slope="0.00"/>
        <vehicle id="f1.9" x="-44.90" y="-1.60" angle="90.00" type="CarA" speed="0.13" pos="5.10" lane="E0_0" slope="0.00"/>
        <vehicle id="test0" x="64.87" y="1.60" angle="270.00" type="test" speed="6.35" pos="35.13" lane="-link_0" slope="0.00"/>
    </timestep>
    <timestep time="30.00">
        <vehicle id="f1.3" x="137.47" y="-1.60" angle="90.00" type="CarB" speed="9.44" pos="37.47" lane="E2_0" slope="0.00"/>
        <vehicle id="f1.4" x="106.85" y="-1.60" angle="90.00" type="CarA" speed="9.72" pos="6.85" lane="E2_0" slope="0.00"/>
        <vehicle id="f1.5" x="88.39" y="-1.60" angle="90.00" type="CarC" speed="8.54" pos="88.39" lane="link_0" slope="0.00"/>
        <vehicle id="f1.6" x="62.87" y="-1.60" angle="90.00" type="CarB" speed="8.55" pos="62.87" lane="link_0" slope="0.00"/>
        <vehicle id="f1.7" x="38.91" y="-1.60" angle="90.00" type="CarD" speed="13.88" pos="38.91" lane="link_0" slope="0.00"/>
        <vehicle id="f1.8" x="-32.11" y="-1.60" angle="90.00" type="CarC" speed="6.16" pos="17.89" lane="E0_0" slope="0.00"/>
        <vehicle id="f1.9" x="-44.80" y="-1.60" angle="90.00" type="CarA" speed="0.10" pos="5.20" lane="E0_0" slope="0.00"/>
        <vehicle id="f2.0" x="144.90" y="1.60" angle="270.00" type="CarD" speed="1.12" pos="5.10" lane="-E2_0" slope="0.00"/>
        <vehicle id="test0" x="57.91" y="1.60" angle="270.00" type="test" speed="6.96" pos="42.09" lane="-link_0" slope="0.00"/>
    </timestep>
    <timestep time="31.00">
        <vehicle id="f1.3" x="147.47" y="-1.60" angle="90.00" type="CarB" speed="9.99" pos="47.47" lane="E2_0" slope="0.00"/>
        <vehicle id="f1.4" x="115.20" y="-1.60" angle="90.00" type="CarA" speed="8.35" pos="15.20" lane="E2_0" slope="0.00"/>
        <vehicle id="f1.5" x="97.03" y="-1.60" angle="90.00" type="CarC" speed="8.64" pos="97.03" lane="link_0" slope="0.00"/>
        <vehicle id="f1.6" x="71.77" y="-1.60" angle="90.00" type="CarB" speed="8.89" pos="71.77" lane="link_0" slope="0.00"/>
        <vehicle id="f1.7" x="50.59" y="-1.60" angle="90.00" type="CarD" speed="11.69" pos="50.59" lane="link_0" slope="0.00"/>
        <vehicle id="f1.8" x="-23.14" y="-1.60" angle="90.00" type="CarC" speed="8.97" pos="26.86" lane="E0_0" slope="0.00"/>
        <vehicle id="f1.9" x="-41.30" y="-1.60" angle="90.00" type="CarA" speed="3.50" pos="8.70" lane="E0_0" slope="0.00"/>
        <vehicle id="f2.0" x="142.56" y="1.60" angle="270.00" type="CarD" speed="2.34" pos="7.44" lane="-E2_0" slope="0.00"/>
        <vehicle id="test0" x="51.22" y="1.60" angle="270.00" type="test" speed="6.69" pos="48.78" lane="-link_0" slope="0.00"/>
    </timestep>
    <timestep time="32.00">
        <vehicle id="f1.10" x="-44.90" y="-1.60" angle="90.00" type="CarA" speed="3.22" pos="5.10" lane="E0_0" slope="0.00"/>
        <vehicle id="f1.4" x="123.90" y="-1.60" angle="90.00" type="CarA" speed="8.69" pos="23.90" lane="E2_0" slope="0.00"/>
        <vehicle id="f1.5" x="106.70" y="-1.60" angle="90.00" type="CarC" speed="9.77" pos="6.70" lane="E2_0" slope="0.00"/>
        <vehicle id="f1.6" x="80.71" y="-1.60" angle="90.00" type="CarB" speed="8.95" pos="80.71" lane="link_0" slope="0.00"/>
        <vehicle id="f1.7" x="62.33" y="-1.60" angle="90.00" type="CarD" speed="11.74" pos="62.33" lane="link_0" slope="0.00"/>
        <vehicle id="f1.8" x="-14.46" y="-1.60" angle="90.00" type="CarC" speed="8.68" pos="35.54" lane="E0_0" slope="0.00"/>
        <vehicle id="f1.9" x="-34.56" y="-1.60" angle="90.00" type="CarA" speed="6.74" pos="15.44" lane="E0_0" slope="0.00"/>
        <vehicle id="f2.0" x="138.52" y="1.60" angle="270.00" type="CarD" speed="4.05" pos="11.48" lane="-E2_0" slope="0.00"/>
        <vehicle id="test0" x="44.23" y="1.60" angle="270.00" type="test" speed="6.99" pos="55.77" lane="-link_0" slope="0.00"/>
    </timestep>
    <timestep time="33.00">
        <vehicle id="f1.10" x="-39.64" y="-1.60" angle="90.00" type="CarA" speed="5.26" pos="10.36" lane="E0_0" slope="0.00"/>
        <vehicle id="f1.4" x="132.93" y="-1.60" angle="90.00" type="CarA" speed="9.04" pos="32.93" lane="E2_0" slope="0.00"/>
        <vehicle id="f1.5" x="115.11" y="-1.60" angle="90.00" type="CarC" speed="8.41" pos="15.11" lane="E2_0" slope="0.00"/>
        <vehicle id="f1.6" x="89.78" y="-1.60" angle="90.00" type="CarB" speed="9.07" pos="89.78" lane="link_0" slope="0.00"/>
        <vehicle id="f1.7" x="72.03" y="-1.60" angle="90.00" type="CarD" speed="9.70" pos="72.03" lane="link_0" slope="0.00"/>