<?xml version="1.0" encoding="UTF-8"?>

<!-- generated on 2022-12-14 11:07:59 by Eclipse SUMO sumo Version 1.15.0
<configuration xmlns:xsi="http://www.w3.org/2001/XMLSchema-instance" xsi:noNamespaceSchemaLocation="http://sumo.dlr.de/xsd/sumoConfiguration.xsd">

    <input>
        <net-file value="data/SUMO_Traffic_Scenario/Scenario-1/network.net.xml"/>
        <route-files value="data/SUMO_Traffic_Scenario/Scenario-1/routes.rou.xml"/>
        <additional-files value="data/SUMO_Traffic_Scenario/Scenario-1/additional.add.xml"/>
    </input>

    <output>
        <fcd-output value="data/SUMO_Traffic_Scenario/Scenario-1/output/FCD-output.xml"/>
    </output>

    <time>
        <begin value="0"/>
        <end value="1200"/>
    </time>

</configuration>
-->

<fcd-export xmlns:xsi="http://www.w3.org/2001/XMLSchema-instance" xsi:noNamespaceSchemaLocation="http://sumo.dlr.de/xsd/fcd_file.xsd">
    <timestep time="0.00">
        <vehicle id="test0" x="144.90" y="1.60" angle="270.00" type="test" speed="8.91" pos="5.10" lane="-E2_0" slope="0.00"/>
    </timestep>
    <timestep time="1.00">
        <vehicle id="test0" x="135.55" y="1.60" angle="270.00" type="test" speed="9.35" pos="14.45" lane="-E2_0" slope="0.00"/>
    </timestep>
    <timestep time="2.00">
        <vehicle id="test0" x="125.55" y="1.60" angle="270.00" type="test" speed="10.00" pos="24.45" lane="-E2_0" slope="0.00"/>
    </timestep>
    <timestep time="3.00">
        <vehicle id="test0" x="115.68" y="1.60" angle="270.00" type="test" speed="9.87" pos="34.32" lane="-E2_0" slope="0.00"/>
    </timestep>
    <timestep time="4.00">
        <vehicle id="f1.0" x="-44.90" y="-1.60" angle="90.00" type="CarA" speed="7.12" pos="5.10" lane="E0_0" slope="0.00"/>
        <vehicle id="test0" x="106.34" y="1.60" angle="270.00" type="test" speed="9.34" pos="43.66" lane="-E2_0" slope="0.00"/>
    </timestep>
    <timestep time="5.00">
        <vehicle id="f1.0" x="-35.11" y="-1.60" angle="90.00" type="CarA" speed="9.79" pos="14.89" lane="E0_0" slope="0.00"/>
        <vehicle id="test0" x="101.50" y="1.60" angle="270.00" type="test" speed="4.84" pos="48.50" lane="-E2_0" slope="0.00"/>
    </timestep>
    <timestep time="6.00">
        <vehicle id="f1.0" x="-26.52" y="-1.60" angle="90.00" type="CarA" speed="8.58" pos="23.48" lane="E0_0" slope="0.00"/>
        <vehicle id="test0" x="101.04" y="1.60" angle="270.00" type="test" speed="0.47" pos="48.96" lane="-E2_0" slope="0.00"/>
    </timestep>
    <timestep time="7.00">
        <vehicle id="f1.0" x="-16.62" y="-1.60" angle="90.00" type="CarA" speed="9.90" pos="33.38" lane="E0_0" slope="0.00"/>
        <vehicle id="test0" x="101.02" y="1.60" angle="270.00" type="test" speed="0.02" pos="48.98" lane="-E2_0" slope="0.00"/>
    </timestep>
    <timestep time="8.00">
        <vehicle id="f1.0" x="-7.37" y="-1.60" angle="90.00" type="CarA" speed="9.26" pos="42.63" lane="E0_0" slope="0.00"/>
        <vehicle id="test0" x="101.01" y="1.60" angle="270.00" type="test" speed="0.01" pos="48.99" lane="-E2_0" slope="0.00"/>
    </timestep>
    <timestep time="9.00">
        <vehicle id="f1.0" x="2.22" y="-1.60" angle="90.00" type="CarA" speed="9.68" pos="2.22" lane="link_0" slope="0.00"/>
        <vehicle id="test0" x="101.00" y="1.60" angle="270.00" type="test" speed="0.01" pos="49.00" lane="-E2_0" slope="0.00"/>
    </timestep>
    <timestep time="10.00">
        <vehicle id="f1.0" x="12.04" y="-1.60" angle="90.00" type="CarA" speed="9.82" pos="12.04" lane="link_0" slope="0.00"/>
        <vehicle id="test0" x="101.00" y="1.60" angle="270.00" type="test" speed="0.00" pos="49.00" lane="-E2_0" slope="0.00"/>
    </timestep>
    <timestep time="11.00">
        <vehicle id="f1.0" x="21.18" y="-1.60" angle="90.00" type="CarA" speed="9.14" pos="21.18" lane="link_0" slope="0.00"/>
        <vehicle id="test0" x="101.00" y="1.60" angle="270.00" type="test" speed="0.00" pos="49.00" lane="-E2_0" slope="0.00"/>
    </timestep>
    <timestep time="12.00">
        <vehicle id="f1.0" x="28.83" y="-1.60" angle="90.00" type="CarA" speed="7.65" pos="28.83" lane="link_0" slope="0.00"/>
        <vehicle id="f2.0" x="144.90" y="1.60" angle="270.00" type="CarA" speed="0.45" pos="5.10" lane="-E2_0" slope="0.00"/>
        <vehicle id="test0" x="101.00" y="1.60" angle="270.00" type="test" speed="0.00" pos="49.00" lane="-E2_0" slope="0.00"/>
    </timestep>
    <timestep time="13.00">
        <vehicle id="f1.0" x="38.41" y="-1.60" angle="90.00" type="CarA" speed="9.58" pos="38.41" lane="link_0" slope="0.00"/>
        <vehicle id="f2.0" x="141.05" y="1.60" angle="270.00" type="CarA" speed="3.85" pos="8.95" lane="-E2_0" slope="0.00"/>
        <vehicle id="test0" x="101.00" y="1.60" angle="270.00" type="test" speed="0.00" pos="49.00" lane="-E2_0" slope="0.00"/>
    </timestep>
    <timestep time="14.00">
        <vehicle id="f1.0" x="46.38" y="-1.60" angle="90.00" type="CarA" speed="7.97" pos="46.38" lane="link_0" slope="0.00"/>
        <vehicle id="f2.0" x="132.27" y="1.60" angle="270.00" type="CarA" speed="8.78" pos="17.73" lane="-E2_0" slope="0.00"/>
        <vehicle id="test0" x="101.00" y="1.60" angle="270.00" type="test" speed="0.00" pos="49.00" lane="-E2_0" slope="0.00"/>
    </timestep>
    <timestep time="15.00">
        <vehicle id="f1.0" x="54.84" y="-1.60" angle="90.00" type="CarA" speed="8.46" pos="54.84" lane="link_0" slope="0.00"/>
        <vehicle id="f2.0" x="123.91" y="1.60" angle="270.00" type="CarA" speed="8.36" pos="26.09" lane="-E2_0" slope="0.00"/>
        <vehicle id="test0" x="101.00" y="1.60" angle="270.00" type="test" speed="0.00" pos="49.00" lane="-E2_0" slope="0.00"/>
    </timestep>
    <timestep time="16.00">
        <vehicle id="f1.0" x="63.68" y="-1.60" angle="90.00" type="CarA" speed="8.84" pos="63.68" lane="link_0" slope="0.00"/>
        <vehicle id="f2.0" x="116.11" y="1.60" angle="270.00" type="CarA" speed="7.80" pos="33.89" lane="-E2_0" slope="0.00"/>
        <vehicle id="test0" x="101.00" y="1.60" angle="270.00" type="test" speed="0.00" pos="49.00" lane="-E2_0" slope="0.00"/>
    </timestep>
    <timestep time="17.00">
        <vehicle id="f1.0" x="72.30" y="-1.60" angle="90.00" type="CarA" speed="8.62" pos="72.30" lane="link_0" slope="0.00"/>
        <vehicle id="f2.0" x="111.31" y="1.60" angle="270.00" type="CarA" speed="4.80" pos="38.69" lane="-E2_0" slope="0.00"/>
        <vehicle id="test0" x="101.00" y="1.60" angle="270.00" type="test" speed="0.00" pos="49.00" lane="-E2_0" slope="0.00"/>
    </timestep>
    <timestep time="18.00">
        <vehicle id="f1.0" x="81.60" y="-1.60" angle="90.00" type="CarA" speed="9.30" pos="81.60" lane="link_0" slope="0.00"/>
        <vehicle id="f2.0" x="108.27" y="1.60" angle="270.00" type="CarA" speed="3.04" pos="41.73" lane="-E2_0" slope="0.00"/>
        <vehicle id="test0" x="101.00" y="1.60" angle="270.00" type="test" speed="0.00" pos="49.00" lane="-E2_0" slope="0.00"/>
    </timestep>
    <timestep time="19.00">
        <vehicle id="f1.0" x="90.26" y="-1.60" angle="90.00" type="CarA" speed="8.66" pos="90.26" lane="link_0" slope="0.00"/>
        <vehicle id="f2.0" x="107.51" y="1.60" angle="270.00" type="CarA" speed="0.76" pos="42.49" lane="-E2_0" slope="0.00"/>
        <vehicle id="test0" x="101.00" y="1.60" angle="270.00" type="test" speed="0.00" pos="49.00" lane="-E2_0" slope="0.00"/>
    </timestep>
    <timestep time="20.00">
        <vehicle id="f1.0" x="100.00" y="-1.60" angle="90.00" type="CarA" speed="9.83" pos="0.09" lane=":end_1_0" slope="0.00"/>
        <vehicle id="f2.0" x="107.50" y="1.60" angle="270.00" type="CarA" speed="0.01" pos="42.50" lane="-E2_0" slope="0.00"/>
        <vehicle id="test0" x="100.36" y="1.60" angle="270.00" type="test" speed="0.64" pos="49.64" lane="-E2_0" slope="0.00"/>
    </timestep>
    <timestep time="21.00">
        <vehicle id="f1.0" x="109.98" y="-1.60" angle="90.00" type="CarA" speed="9.99" pos="9.98" lane="E2_0" slope="0.00"/>
        <vehicle id="f2.0" x="107.01" y="1.60" angle="270.00" type="CarA" speed="0.49" pos="42.99" lane="-E2_0" slope="0.00"/>
        <vehicle id="test0" x="99.23" y="1.60" angle="270.00" type="test" speed="1.23" pos="0.77" lane="-link_0" slope="0.00"/>
    </timestep>
    <timestep time="22.00">
        <vehicle id="f1.0" x="119.06" y="-1.60" angle="90.00" type="CarA" speed="9.08" pos="19.06" lane="E2_0" slope="0.00"/>
        <vehicle id="f2.0" x="105.63" y="1.60" angle="270.00" type="CarA" speed="1.38" pos="44.37" lane="-E2_0" slope="0.00"/>
        <vehicle id="test0" x="97.37" y="1.60" angle="270.00" type="test" speed="1.85" pos="2.63" lane="-link_0" slope="0.00"/>
    </timestep>
    <timestep time="23.00">
        <vehicle id="f1.0" x="128.74" y="-1.60" angle="90.00" type="CarA" speed="9.68" pos="28.74" lane="E2_0" slope="0.00"/>
        <vehicle id="f2.0" x="104.37" y="1.60" angle="270.00" type="CarA" speed="1.26" pos="45.63" lane="-E2_0" slope="0.00"/>
        <vehicle id="test0" x="94.96" y="1.60" angle="270.00" type="test" speed="2.42" pos="5.04" lane="-link_0" slope="0.00"/>
    </timestep>
    <timestep time="24.00">
        <vehicle id="f1.0" x="137.25" y="-1.60" angle="90.00" type="CarA" speed="8.51" pos="37.25" lane="E2_0" slope="0.00"/>
        <vehicle id="f2.0" x="101.62" y="1.60" angle="270.00" type="CarA" speed="2.76" pos="48.38" lane="-E2_0" slope="0.00"/>
        <vehicle id="test0" x="91.82" y="1.60" angle="270.00" type="test" speed="3.14" pos="8.18" lane="-link_0" slope="0.00"/>
    </timestep>
    <timestep time="25.00">
        <vehicle id="f1.0" x="146.31" y="-1.60" angle="90.00" type="CarA" speed="9.06" pos="46.31" lane="E2_0" slope="0.00"/>
        <vehicle id="f2.0" x="99.73" y="1.60" angle="270.00" type="CarA" speed="1.99" pos="0.27" lane="-link_0" slope="0.00"/>
        <vehicle id="test0" x="87.91" y="1.60" angle="270.00" type="test" speed="3.91" pos="12.09" lane="-link_0" slope="0.00"/>
    </timestep>
    <timestep time="26.00">
        <vehicle id="f1.1" x="-44.90" y="-1.60" angle="90.00" type="CarC" speed="4.91" pos="5.10" lane="E0_0" slope="0.00"/>
        <vehicle id="f2.0" x="95.97" y="1.60" angle="270.00" type="CarA" speed="3.76" pos="4.03" lane="-link_0" slope="0.00"/>
        <vehicle id="test0" x="83.48" y="1.60" angle="270.00" type="test" speed="4.43" pos="16.52" lane="-link_0" slope="0.00"/>
    </timestep>
    <timestep time="27.00">
        <vehicle id="f1.1" x="-37.40" y="-1.60" angle="90.00" type="CarC" speed="7.50" pos="12.60" lane="E0_0" slope="0.00"/>
        <vehicle id="f1.2" x="-44.90" y="-1.60" angle="90.00" type="CarB" speed="3.51" pos="5.10" lane="E0_0" slope="0.00"/>
        <vehicle id="f2.0" x="93.16" y="1.60" angle="270.00" type="CarA" speed="2.81" pos="6.84" lane="-link_0" slope="0.00"/>
        <vehicle id="test0" x="78.52" y="1.60" angle="270.00" type="test" speed="4.96" pos="21.48" lane="-link_0" slope="0.00"/>
    </timestep>
    <timestep time="28.00">
        <vehicle id="f1.1" x="-28.52" y="-1.60" angle="90.00" type="CarC" speed="8.88" pos="21.48" lane="E0_0" slope="0.00"/>
        <vehicle id="f1.2" x="-41.46" y="-1.60" angle="90.00" type="CarB" speed="3.44" pos="8.54" lane="E0_0" slope="0.00"/>
        <vehicle id="f2.0" x="89.29" y="1.60" angle="270.00" type="CarA" speed="3.87" pos="10.71" lane="-link_0" slope="0.00"/>
        <vehicle id="test0" x="72.80" y="1.60" angle="270.00" type="test" speed="5.72" pos="27.20" lane="-link_0" slope="0.00"/>
    </timestep>
    <timestep time="29.00">
        <vehicle id="f1.1" x="-18.92" y="-1.60" angle="90.00" type="CarC" speed="9.60" pos="31.08" lane="E0_0" slope="0.00"/>
        <vehicle id="f1.2" x="-34.31" y="-1.60" angle="90.00" type="CarB" speed="7.14" pos="15.69" lane="E0_0" slope="0.00"/>
        <vehicle id="f2.0" x="84.95" y="1.60" angle="270.00" type="CarA" speed="4.34" pos="15.05" lane="-link_0" slope="0.00"/>
        <vehicle id="test0" x="66.29" y="1.60" angle="270.00" type="test" speed="6.51" pos="33.71" lane="-link_0" slope="0.00"/>
    </timestep>
    <timestep time="30.00">
        <vehicle id="f1.1" x="-10.21" y="-1.60" angle="90.00" type="CarC" speed="8.71" pos="39.79" lane="E0_0" slope="0.00"/>
        <vehicle id="f1.2" x="-27.35" y="-1.60" angle="90.00" type="CarB" speed="6.96" pos="22.65" lane="E0_0" slope="0.00"/>
        <vehicle id="f1.3" x="-44.90" y="-1.60" angle="90.00" type="CarA" speed="0.44" pos="5.10" lane="E0_0" slope="0.00"/>
        <vehicle id="f2.0" x="79.15" y="1.60" angle="270.00" type="CarA" speed="5.80" pos="20.85" lane="-link_0" slope="0.00"/>
        <vehicle id="test0" x="59.36" y="1.60" angle="270.00" type="test" speed="6.93" pos="40.64" lane="-link_0" slope="0.00"/>
    </timestep>
    <timestep time="31.00">
        <vehicle id="f1.1" x="-1.21" y="-1.60" angle="90.00" type="CarC" speed="9.00" pos="48.79" lane="E0_0" slope="0.00"/>
        <vehicle id="f1.2" x="-19.78" y="-1.60" angle="90.00" type="CarB" speed="7.58" pos="30.22" lane="E0_0" slope="0.00"/>
        <vehicle id="f1.3" x="-41.35" y="-1.60" angle="90.00" type="CarA" speed="3.55" pos="8.65" lane="E0_0" slope="0.00"/>
        <vehicle id="f2.0" x="72.20" y="1.60" angle="270.00" type="CarA" speed="6.96" pos="27.80" lane="-link_0" slope="0.00"/>
        <vehicle id="test0" x="51.81" y="1.60" angle="270.00" type="test" speed="7.55" pos="48.19" lane="-link_0" slope="0.00"/>
    </timestep>
    <timestep time="32.00">
        <vehicle id="f1.1" x="8.63" y="-1.60" angle="90.00" type="CarC" speed="9.94" pos="8.63" lane="link_0" slope="0.00"/>
        <vehicle id="f1.2" x="-10.95" y="-1.60" angle="90.00" type="CarB" speed="8.83" pos="39.05" lane="E0_0" slope="0.00"/>
        <vehicle id="f1.3" x="-34.11" y="-1.60" angle="90.00" type="CarA" speed="7.24" pos="15.89" lane="E0_0" slope="0.00"/>
        <vehicle id="f1.4" x="-44.90" y="-1.60" angle="90.00" type="CarC" speed="2.48" pos="5.10" lane="E0_0" slope="0.00"/>
        <vehicle id="f2.0" x="64.16" y="1.60" angle="270.00" type="CarA" speed="8.03" pos="35.84" lane="-link_0" slope="0.00"/>
        <vehicle id="test0" x="43.74" y="1.60" angle="270.00" type="test" speed="8.07" pos="56.26" lane="-link_0" slope="0.00"/>
    </timestep>
    <timestep time="33.00">
        <vehicle id="f1.1" x="17.56" y="-1.60" angle="90.00" type="CarC" speed="8.93" pos="17.56" lane="link_0" slope="0.00"/>
        <vehicle id="f1.2" x="-1.37" y="-1.60" angle="90.00" type="CarB" speed="9.58" pos="48.63" lane="E0_0" slope="0.00"/>
        <vehicle id="f1.3" x="-24.67" y="-1.60" angle="90.00" type="CarA" speed="9.44" pos="25.33" lane="E0_0" slope="0.00"/>
        <vehicle id="f1.4" x="-40.38" y="-1.60" angle="90.00" type="CarC" speed="4.52" pos="9.62" lane="E0_0" slope="0.00"/>
        <vehicle id="f2.0" x="57.19" y="1.60" angle="270.00" type="CarA" speed="6.97" pos="42.81" lane="-link_0" slope="0.00"/>
        <vehicle id="test0" x="35.11" y="1.60" angle="270.00" type="test" speed="8.64" pos="64.89" lane="-link_0" slope="0.00"/>
    </timestep>
    <timestep time="34.00">
        <vehicle id="f1.1" x="26.87" y="-1.60" angle="90.00" type="CarC" speed="9.31" pos="26.87" lane="link_0" slope="0.00"/>
        <vehicle id="f1.2" x="7.23" y="-1.60" angle="90.00" type="CarB" speed="8.70" pos="7.23" lane="link_0" slope="0.00"/>
        <vehicle id="f1.3" x="-15.94" y="-1.60" angle="90.00" type="CarA" speed="8.73" pos="34.06" lane="E0_0" slope="0.00"/>
        <vehicle id="f1.4" x="-32.88" y="-1.60" angle="90.00" type="CarC" speed="7.50" pos="17.12" lane="E0_0" slope="0.00"/>
        <vehicle id="f1.5" x="-44.90" y="-1.60" angle="90.00" type="CarB" speed="5.45" pos="5.10" lane="E0_0" slope="0.00"/>
        <vehicle id="f2.0" x="47.97" y="1.60" angle="270.00" type="CarA" speed="9.22" pos="52.03" lane="-link_0" slope="0.00"/>
        <vehicle id="test0" x="26.04" y="1.60" angle="270.00" type="test" speed="9.07" pos="73.96" lane="-link_0" slope="0.00"/>
    </timestep>
    <timestep time="35.00">
        <vehicle id="f1.1" x="35.41" y="-1.60" angle="90.00" type="CarC" speed="8.53" pos="35.41" lane="link_0" slope="0.00"/>
        <vehicle id="f1.2" x="16.04" y="-1.60" angle="90.00" type="CarB" speed="8.82" pos="16.04" lane="link_0" slope="0.00"/>
        <vehicle id="f1.3" x="-7.71" y="-1.60" angle="90.00" type="CarA" speed="8.24" pos="42.29" lane="E0_0" slope="0.00"/>
        <vehicle id="f1.4" x="-23.37" y="-1.60" angle="90.00" type="CarC" speed="9.51" pos="26.63" lane="E0_0" slope="0.00"/>
        <vehicle id="f1.5" x="-40.69" y="-1.60" angle="90.00" type="CarB" speed="4.21" pos="9.31" lane="E0_0" slope="0.00"/>
        <vehicle id="f2.0" x="40.75" y="1.60" angle="270.00" type="CarA" speed="7.22" pos="59.25" lane="-link_0" slope="0.00"/>
        <vehicle id="test0" x="16.48" y="1.60" angle="270.00" type="test" speed="9.56" pos="83.52" lane="-link_0" slope="0.00"/>
    </timestep>
    <timestep time="36.00">
        <vehicle id="f1.1" x="44.72" y="-1.60" angle="90.00" type="CarC" speed="9.31" pos="44.72" lane="link_0" slope="0.00"/>
        <vehicle id="f1.2" x="24.00" y="-1.60" angle="90.00" type="CarB" speed="7.96" pos="24.00" lane="link_0" slope="0.00"/>
        <vehicle id="f1.3" x="0.16" y="-1.60" angle="90.00" type="CarA" speed="7.97" pos="0.16" lane="link_0" slope="0.00"/>
        <vehicle id="f1.4" x="-14.95" y="-1.60" angle="90.00" type="CarC" speed="8.42" pos="35.05" lane="E0_0" slope="0.00"/>
        <vehicle id="f1.5" x="-33.33" y="-1.60" angle="90.00" type="CarB" speed="7.36" pos="16.67" lane="E0_0" slope="0.00"/>
        <vehicle id="f1.6" x="-44.90" y="-1.60" angle="90.00" type="CarD" speed="6.21" pos="5.10" lane="E0_0" slope="0.00"/>
        <vehicle id="f2.0" x="31.70" y="1.60" angle="270.00" type="CarA" speed="9.05" pos="68.30" lane="-link_0" slope="0.00"/>
        <vehicle id="f2.1" x="144.90" y="1.60" angle="270.00" type="CarC" speed="0.06" pos="5.10" lane="-E2_0" slope="0.00"/>
        <vehicle id="test0" x="6.68" y="1.60" angle="270.00" type="test" speed="9.80" pos="93.32" lane="-link_0" slope="0.00"/>
    </timestep>
    <timestep time="37.00">
        <vehicle id="f1.1" x="54.41" y="-1.60" angle="90.00" type="CarC" speed="9.70" pos="54.41" lane="link_0" slope="0.00"/>
        <vehicle id="f1.2" x="33.02" y="-1.60" angle="90.00" type="CarB" speed="9.02" pos="33.02" lane="link_0" slope="0.00"/>
        <vehicle id="f1.3" x="7.63" y="-1.60" angle="90.00" type="CarA" speed="7.47" pos="7.63" lane="link_0" slope="0.00"/>
        <vehicle id="f1.4" x="-6.92" y="-1.60" angle="90.00" type="CarC" speed="8.03" pos="43.08" lane="E0_0" slope="0.00"/>
        <vehicle id="f1.5" x="-25.27" y="-1.60" angle="90.00" type="CarB" speed="8.06" pos="24.73" lane="E0_0" slope="0.00"/>
        <vehicle id="f1.6" x="-39.43" y="-1.60" angle="90.00" type="CarD" speed="5.47" pos="10.57" lane="E0_0" slope="0.00"/>
        <vehicle id="f2.0" x="21.72" y="1.60" angle="270.00" type="CarA" speed="9.98" pos="78.28" lane="-link_0" slope="0.00"/>
        <vehicle id="f2.1" x="142.21" y="1.60" angle="270.00" type="CarC" speed="2.69" pos="7.79" lane="-E2_0" slope="0.00"/>
        <vehicle id="test0" x="-2.95" y="1.60" angle="270.00" type="test" speed="9.73" pos="2.95" lane="-E0_0" slope="0.00"/>
    </timestep>
    <timestep time="38.00">
        <vehicle id="f1.1" x="63.19" y="-1.60" angle="90.00" type="CarC" speed="8.78" pos="63.19" lane="link_0" slope="0.00"/>
        <vehicle id="f1.2" x="41.88" y="-1.60" angle="90.00" type="CarB" speed="8.86" pos="41.88" lane="link_0" slope="0.00"/>
        <vehicle id="f1.3" x="16.48" y="-1.60" angle="90.00" type="CarA" speed="8.85" pos="16.48" lane="link_0" slope="0.00"/>
        <vehicle id="f1.4" x="-0.00" y="-1.60" angle="90.00" type="CarC" speed="6.92" pos="50.00" lane="E0_0" slope="0.00"/>
        <vehicle id="f1.5" x="-16.99" y="-1.60" angle="90.00" type="CarB" speed="8.28" pos="33.01" lane="E0_0" slope="0.00"/>
        <vehicle id="f1.6" x="-32.26" y="-1.60" angle="90.00" type="CarD" speed="7.16" pos="17.74" lane="E0_0" slope="0.00"/>
        <vehicle id="f2.0" x="13.27" y="1.60" angle="270.00" type="CarA" speed="8.45" pos="86.73" lane="-link_0" slope="0.00"/>
        <vehicle id="f2.1" x="137.16" y="1.60" angle="270.00" type="CarC" speed="5.05" pos="12.84" lane="-E2_0" slope="0.00"/>
        <vehicle id="test0" x="-12.78" y="1.60" angle="270.00" type="test" speed="9.82" pos="12.78" lane="-E0_0" slope="0.00"/>
    </timestep>
    <timestep time="39.00">
        <vehicle id="f1.1" x="71.75" y="-1.60" angle="90.00" type="CarC" speed="8.56" pos="71.75" lane="link_0" slope="0.00"/>
        <vehicle id="f1.2" x="51.54" y="-1.60" angle="90.00" type="CarB" speed="9.66" pos="51.54" lane="link_0" slope="0.00"/>
        <vehicle id="f1.3" x="24.66" y="-1.60" angle="90.00" type="CarA" speed="8.17" pos="24.66" lane="link_0" slope="0.00"/>
        <vehicle id="f1.4" x="9.23" y="-1.60" angle="90.00" type="CarC" speed="9.34" pos="9.23" lane="link_0" slope="0.00"/>
        <vehicle id="f1.5" x="-9.16" y="-1.60" angle="90.00" type="CarB" speed="7.82" pos="40.84" lane="E0_0" slope="0.00"/>
        <vehicle id="f1.6" x="-24.43" y="-1.60" angle="90.00" type="CarD" speed="7.84" pos="25.57" lane="E0_0" slope="0.00"/>
        <vehicle id="f2.0" x="5.10" y="1.60" angle="270.00" type="CarA" speed="8.17" pos="94.90" lane="-link_0" slope="0.00"/>
        <vehicle id="f2.1" x="130.26" y="1.60" angle="270.00" type="CarC" speed="6.90" pos="19.74" lane="-E2_0" slope="0.00"/>
        <vehicle id="test0" x="-22.58" y="1.60" angle="270.00" type="test" speed="9.80" pos="22.58" lane="-E0_0" slope="0.00"/>
    </timestep>
    <timestep time="40.00">
        <vehicle id="f1.1" x="81.56" y="-1.60" angle="90.00" type="CarC" speed="9.81" pos="81.56" lane="link_0" slope="0.00"/>
        <vehicle id="f1.2" x="60.15" y="-1.60" angle="90.00" type="CarB" speed="8.61" pos="60.15" lane="link_0" slope="0.00"/>
        <vehicle id="f1.3" x="32.43" y="-1.60" angle="90.00" type="CarA" speed="7.78" pos="32.43" lane="link_0" slope="0.00"/>
        <vehicle id="f1.4" x="16.62" y="-1.60" angle="90.00" type="CarC" speed="7.39" pos="16.62" lane="link_0" slope="0.00"/>
        <vehicle id="f1.5" x="-3.73" y="-1.60" angle="90.00" type="CarB" speed="5.44" pos="46.27" lane="E0_0" slope="0.00"/>
        <vehicle id="f1.6" x="-16.47" y="-1.60" angle="90.00" type="CarD" speed="7.95" pos="33.53" lane="E0_0" slope="0.00"/>
        <vehicle id="f2.0" x="-2.94" y="1.60" angle="270.00" type="CarA" speed="8.13" pos="2.94" lane="-E0_0" slope="0.00"/>
        <vehicle id="f2.1" x="121.65" y="1.60" angle="270.00" type="CarC" speed="8.60" pos="28.35" lane="-E2_0" slope="0.00"/>
        <vehicle id="test0" x="-32.57" y="1.60" angle="270.00" type="test" speed="9.99" pos="32.57" lane="-E0_0" slope="0.00"/>
    </timestep>
    <timestep time="41.00">
        <vehicle id="f1.1" x="90.27" y="-1.60" angle="90.00" type="CarC" speed="8.71" pos="90.27" lane="link_0" slope="0.00"/>
        <vehicle id="f1.2" x="69.89" y="-1.60" angle="90.00" type="CarB" speed="9.74" pos="69.89" lane="link_0" slope="0.00"/>
        <vehicle id="f1.3" x="41.49" y="-1.60" angle="90.00" type="CarA" speed="9.05" pos="41.49" lane="link_0" slope="0.00"/>
        <vehicle id="f1.4" x="24.13" y="-1.60" angle="90.00" type="CarC" speed="7.50" pos="24.13" lane="link_0" slope="0.00"/>
        <vehicle id="f1.5" x="-1.54" y="-1.60" angle="90.00" type="CarB" speed="2.19" pos="48.46" lane="E0_0" slope="0.00"/>
        <vehicle id="f1.6" x="-10.95" y="-1.60" angle="90.00" type="CarD" speed="5.52" pos="39.05" lane="E0_0" slope="0.00"/>
        <vehicle id="f1.7" x="-44.90" y="-1.60" angle="90.00" type="CarA" speed="6.73" pos="5.10" lane="E0_0" slope="0.00"/>
        <vehicle id="f2.0" x="-10.67" y="1.60" angle="270.00" type="CarA" speed="7.74" pos="10.67" lane="-E0_0" slope="0.00"/>
        <vehicle id="f2.1" x="111.95" y="1.60" angle="270.00" type="CarC" speed="9.70" pos="38.05" lane="-E2_0" slope="0.00"/>
        <vehicle id="test0" x="-42.30" y="1.60" angle="270.00" type="test" speed="9.73" pos="42.30" lane="-E0_0" slope="0.00"/>
    </timestep>
    <timestep time="42.00">
        <vehicle id="f1.1" x="99.92" y="-1.60" angle="90.00" type="CarC" speed="9.65" pos="99.92" lane="link_0" slope="0.00"/>
        <vehicle id="f1.2" x="78.21" y="-1.60" angle="90.00" type="CarB" speed="8.32" pos="78.21" lane="link_0" slope="0.00"/>
        <vehicle id="f1.3" x="51.03" y="-1.60" angle="90.00" type="CarA" speed="9.54" pos="51.03" lane="link_0" slope="0.00"/>
        <vehicle id="f1.4" x="32.86" y="-1.60" angle="90.00" type="CarC" speed="8.74" pos="32.86" lane="link_0" slope="0.00"/>
        <vehicle id="f1.5" x="-1.20" y="-1.60" angle="90.00" type="CarB" speed="0.34" pos="48.80" lane="E0_0" slope="0.00"/>
        <vehicle id="f1.6" x="-8.64" y="-1.60" angle="90.00" type="CarD" speed="2.31" pos="41.36" lane="E0_0" slope="0.00"/>
        <vehicle id="f1.7" x="-36.06" y="-1.60" angle="90.00" type="CarA" speed="8.84" pos="13.94" lane="E0_0" slope="0.00"/>
        <vehicle id="f1.8" x="-44.90" y="-1.60" angle="90.00" type="CarA" speed="4.66" pos="5.10" lane="E0_0" slope="0.00"/>
        <vehicle id="f2.0" x="-18.87" y="1.60" angle="270.00" type="CarA" speed="8.19" pos="18.87" lane="-E0_0" slope="0.00"/>
        <vehicle id="f2.1" x="102.87" y="1.60" angle="270.00" type="CarC" speed="9.07" pos="47.13" lane="-E2_0" slope="0.00"/>
    </timestep>
    <timestep time="43.00">
        <vehicle id="f1.1" x="108.36" y="-1.60" angle="90.00" type="CarC" speed="8.54" pos="8.36" lane="E2_0" slope="0.00"/>
        <vehicle id="f1.2" x="86.71" y="-1.60" angle="90.00" type="CarB" speed="8.50" pos="86.71" lane="link_0" slope="0.00"/>
        <vehicle id="f1.3" x="58.63" y="-1.60" angle="90.00" type="CarA" speed="7.61" pos="58.63" lane="link_0" slope="0.00"/>
        <vehicle id="f1.4" x="42.10" y="-1.60" angle="90.00" type="CarC" speed="9.24" pos="42.10" lane="link_0" slope="0.00"/>
        <vehicle id="f1.5" x="-1.09" y="-1.60" angle="90.00" type="CarB" speed="0.11" pos="48.91" lane="E0_0" slope="0.00"/>
        <vehicle id="f1.6" x="-7.91" y="-1.60" angle="90.00" type="CarD" speed="0.72" pos="42.09" lane="E0_0" slope="0.00"/>
        <vehicle id="f1.7" x="-26.65" y="-1.60" angle="90.00" type="CarA" speed="9.41" pos="23.35" lane="E0_0" slope="0.00"/>
        <vehicle id="f1.8" x="-39.83" y="-1.60" angle="90.00" type="CarA" speed="5.07" pos="10.17" lane="E0_0" slope="0.00"/>
        <vehicle id="f2.0" x="-26.54" y="1.60" angle="270.00" type="CarA" speed="7.67" pos="26.54" lane="-E0_0" slope="0.00"/>
        <vehicle id="f2.1" x="93.12" y="1.60" angle="270.00" type="CarC" speed="9.85" pos="6.88" lane="-link_0" slope="0.00"/>
    </timestep>
    <timestep time="44.00">
        <vehicle id="f1.1" x="118.25" y="-1.60" angle="90.00" type="CarC" speed="9.89" pos="18.25" lane="E2_0" slope="0.00"/>
        <vehicle id="f1.2" x="96.64" y="-1.60" angle="90.00" type="CarB" speed="9.93" pos="96.64" lane="link_0" slope="0.00"/>
        <vehicle id="f1.3" x="67.53" y="-1.60" angle="90.00" type="CarA" speed="8.89" pos="67.53" lane="link_0" slope="0.00"/>
        <vehicle id="f1.4" x="50.11" y="-1.60" angle="90.00" type="CarC" speed="8.01" pos="50.11" lane="link_0" slope="0.00"/>
        <vehicle id="f1.5" x="-1.04" y="-1.60" angle="90.00" type="CarB" speed="0.05" pos="48.96" lane="E0_0" slope="0.00"/>
        <vehicle id="f1.6" x="-7.68" y="-1.60" angle="90.00" type="CarD" speed="0.23" pos="42.32" lane="E0_0" slope="0.00"/>
        <vehicle id="f1.7" x="-20.25" y="-1.60" angle="90.00" type="CarA" speed="6.41" pos="29.75" lane="E0_0" slope="0.00"/>
        <vehicle id="f1.8" x="-32.53" y="-1.60" angle="90.00" type="CarA" speed="7.30" pos="17.47" lane="E0_0" slope="0.00"/>
        <vehicle id="f2.0" x="-34.90" y="1.60" angle="270.00" type="CarA" speed="8.36" pos="34.90" lane="-E0_0" slope="0.00"/>
        <vehicle id="f2.1" x="83.62" y="1.60" angle="270.00" type="CarC" speed="9.50" pos="16.38" lane="-link_0" slope="0.00"/>
    </timestep>
    <timestep time="45.00">
        <vehicle id="f1.1" x="127.24" y="-1.60" angle="90.00" type="CarC" speed="8.99" pos="27.24" lane="E2_0" slope="0.00"/>
        <vehicle id="f1.2" x="106.43" y="-1.60" angle="90.00" type="CarB" speed="9.89" pos="6.43" lane="E2_0" slope="0.00"/>
        <vehicle id="f1.3" x="75.48" y="-1.60" angle="90.00" type="CarA" speed="7.95" pos="75.48" lane="link_0" slope="0.00"/>
        <vehicle id="f1.4" x="59.33" y="-1.60" angle="90.00" type="CarC" speed="9.22" pos="59.33" lane="link_0" slope="0.00"/>
        <vehicle id="f1.5" x="-1.00" y="-1.60" angle="90.00" type="CarB" speed="0.03" pos="49.00" lane="E0_0" slope="0.00"/>
        <vehicle id="f1.6" x="-7.59" y="-1.60" angle="90.00" type="CarD" speed="0.10" pos="42.41" lane="E0_0" slope="0.00"/>
        <vehicle id="f1.7" x="-16.58" y="-1.60" angle="90.00" type="CarA" speed="3.66" pos="33.42" lane="E0_0" slope="0.00"/>
        <vehicle id="f1.8" x="-26.51" y="-1.60" angle="90.00" type="CarA" speed="6.02" pos="23.49" lane="E0_0" slope="0.00"/>
        <vehicle id="f2.0" x="-43.98" y="1.60" angle="270.00" type="CarA" speed="9.07" pos="43.98" lane="-E0_0" slope="0.00"/>
        <vehicle id="f2.1" x="74.00" y="1.60" angle="270.00" type="CarC" speed="9.62" pos="26.00" lane="-link_0" slope="0.00"/>
    </timestep>
    <timestep time="46.00">
        <vehicle id="f1.1" x="137.10" y="-1.60" angle="90.00" type="CarC" speed="9.85" pos="37.10" lane="E2_0" slope="0.00"/>
        <vehicle id="f1.2" x="115.28" y="-1.60" angle="90.00" type="CarB" speed="8.86" pos="15.28" lane="E2_0" slope="0.00"/>
        <vehicle id="f1.3" x="84.84" y="-1.60" angle="90.00" type="CarA" speed="9.37" pos="84.84" lane="link_0" slope="0.00"/>
        <vehicle id="f1.4" x="67.98" y="-1.60" angle="90.00" type="CarC" speed="8.66" pos="67.98" lane="link_0" slope="0.00"/>
        <vehicle id="f1.5" x="-1.00" y="-1.60" angle="90.00" type="CarB" speed="0.00" pos="49.00" lane="E0_0" slope="0.00"/>