<?xml version="1.0" encoding="UTF-8"?>

<!-- generated on 2022-12-14 11:08:21 by Eclipse SUMO sumo Version 1.15.0
<configuration xmlns:xsi="http://www.w3.org/2001/XMLSchema-instance" xsi:noNamespaceSchemaLocation="http://sumo.dlr.de/xsd/sumoConfiguration.xsd">

    <input>
        <net-file value="data/SUMO_Traffic_Scenario/Scenario-7/network.net.xml"/>
        <route-files value="data/SUMO_Traffic_Scenario/Scenario-7/routes.rou.xml"/>
        <additional-files value="data/SUMO_Traffic_Scenario/Scenario-7/additional.add.xml"/>
    </input>

    <output>
        <fcd-output value="data/SUMO_Traffic_Scenario/Scenario-7/output/FCD-output.xml"/>
    </output>

    <time>
        <begin value="0"/>
        <end value="1200"/>
    </time>

</configuration>
-->

<fcd-export xmlns:xsi="http://www.w3.org/2001/XMLSchema-instance" xsi:noNamespaceSchemaLocation="http://sumo.dlr.de/xsd/fcd_file.xsd">
    <timestep time="0.00">
        <vehicle id="test0" x="144.90" y="1.60" angle="270.00" type="test" speed="8.91" pos="5.10" lane="-E2_0" slope="0.00"/>
    </timestep>
    <timestep time="1.00">
        <vehicle id="test0" x="135.55" y="1.60" angle="270.00" type="test" speed="9.35" pos="14.45" lane="-E2_0" slope="0.00"/>
    </timestep>
    <timestep time="2.00">
        <vehicle id="f2.0" x="144.90" y="1.60" angle="270.00" type="CarA" speed="7.12" pos="5.10" lane="-E2_0" slope="0.00"/>
        <vehicle id="test0" x="125.55" y="1.60" angle="270.00" type="test" speed="10.00" pos="24.45" lane="-E2_0" slope="0.00"/>
    </timestep>
    <timestep time="3.00">
        <vehicle id="f2.0" x="135.90" y="1.60" angle="270.00" type="CarA" speed="9.00" pos="14.10" lane="-E2_0" slope="0.00"/>
        <vehicle id="test0" x="115.68" y="1.60" angle="270.00" type="test" speed="9.87" pos="34.32" lane="-E2_0" slope="0.00"/>
    </timestep>
    <timestep time="4.00">
        <vehicle id="f2.0" x="126.75" y="1.60" angle="270.00" type="CarA" speed="9.14" pos="23.25" lane="-E2_0" slope="0.00"/>
        <vehicle id="test0" x="105.85" y="1.60" angle="270.00" type="test" speed="9.83" pos="44.15" lane="-E2_0" slope="0.00"/>
    </timestep>
    <timestep time="5.00">
        <vehicle id="f2.0" x="119.51" y="1.60" angle="270.00" type="CarA" speed="7.25" pos="30.49" lane="-E2_0" slope="0.00"/>
        <vehicle id="test0" x="96.30" y="1.60" angle="270.00" type="test" speed="9.65" pos="3.70" lane="-link_0" slope="0.00"/>
    </timestep>
    <timestep time="6.00">
        <vehicle id="f2.0" x="110.70" y="1.60" angle="270.00" type="CarA" speed="8.81" pos="39.30" lane="-E2_0" slope="0.00"/>
        <vehicle id="test0" x="86.48" y="1.60" angle="270.00" type="test" speed="9.82" pos="13.52" lane="-link_0" slope="0.00"/>
    </timestep>
    <timestep time="7.00">
        <vehicle id="f2.0" x="103.11" y="1.60" angle="270.00" type="CarA" speed="7.60" pos="46.89" lane="-E2_0" slope="0.00"/>
        <vehicle id="test0" x="76.71" y="1.60" angle="270.00" type="test" speed="9.76" pos="23.29" lane="-link_0" slope="0.00"/>
    </timestep>
    <timestep time="8.00">
        <vehicle id="f2.0" x="93.53" y="1.60" angle="270.00" type="CarA" speed="9.67" pos="6.47" lane="-link_0" slope="0.00"/>
        <vehicle id="test0" x="66.79" y="1.60" angle="270.00" type="test" speed="9.92" pos="33.21" lane="-link_0" slope="0.00"/>
    </timestep>
    <timestep time="9.00">
        <vehicle id="f1.0" x="-44.90" y="-1.60" angle="90.00" type="CarA" speed="0.45" pos="5.10" lane="E0_0" slope="0.00"/>
        <vehicle id="f2.0" x="85.29" y="1.60" angle="270.00" type="CarA" speed="8.24" pos="14.71" lane="-link_0" slope="0.00"/>
        <vehicle id="test0" x="56.82" y="1.60" angle="270.00" type="test" speed="9.97" pos="43.18" lane="-link_0" slope="0.00"/>
    </timestep>
    <timestep time="10.00">
        <vehicle id="f1.0" x="-39.65" y="-1.60" angle="90.00" type="CarA" speed="5.25" pos="10.35" lane="E0_0" slope="0.00"/>
        <vehicle id="f2.0" x="76.99" y="1.60" angle="270.00" type="CarA" speed="8.31" pos="23.01" lane="-link_0" slope="0.00"/>
        <vehicle id="test0" x="46.90" y="1.60" angle="270.00" type="test" speed="9.92" pos="53.10" lane="-link_0" slope="0.00"/>
    </timestep>
    <timestep time="11.00">
        <vehicle id="f1.0" x="-31.07" y="-1.60" angle="90.00" type="CarA" speed="8.58" pos="18.93" lane="E0_0" slope="0.00"/>
        <vehicle id="f1.1" x="-44.90" y="-1.60" angle="90.00" type="CarC" speed="5.90" pos="5.10" lane="E0_0" slope="0.00"/>
        <vehicle id="f2.0" x="67.23" y="1.60" angle="270.00" type="CarA" speed="9.76" pos="32.77" lane="-link_0" slope="0.00"/>
        <vehicle id="test0" x="37.20" y="1.60" angle="270.00" type="test" speed="9.70" pos="62.80" lane="-link_0" slope="0.00"/>
    </timestep>
    <timestep time="12.00">
        <vehicle id="f1.0" x="-21.17" y="-1.60" angle="90.00" type="CarA" speed="9.90" pos="28.83" lane="E0_0" slope="0.00"/>
        <vehicle id="f1.1" x="-37.39" y="-1.60" angle="90.00" type="CarC" speed="7.51" pos="12.61" lane="E0_0" slope="0.00"/>
        <vehicle id="f2.0" x="57.29" y="1.60" angle="270.00" type="CarA" speed="9.94" pos="42.71" lane="-link_0" slope="0.00"/>
        <vehicle id="test0" x="27.51" y="1.60" angle="270.00" type="test" speed="9.69" pos="72.49" lane="-link_0" slope="0.00"/>
    </timestep>
    <timestep time="13.00">
        <vehicle id="f1.0" x="-11.48" y="-1.60" angle="90.00" type="CarA" speed="9.68" pos="38.52" lane="E0_0" slope="0.00"/>
        <vehicle id="f1.1" x="-27.99" y="-1.60" angle="90.00" type="CarC" speed="9.40" pos="22.01" lane="E0_0" slope="0.00"/>
        <vehicle id="f2.0" x="49.68" y="1.60" angle="270.00" type="CarA" speed="7.61" pos="50.32" lane="-link_0" slope="0.00"/>
        <vehicle id="test0" x="17.89" y="1.60" angle="270.00" type="test" speed="9.62" pos="82.11" lane="-link_0" slope="0.00"/>
    </timestep>
    <timestep time="14.00">
        <vehicle id="f1.0" x="-3.36" y="-1.60" angle="90.00" type="CarA" speed="8.13" pos="46.64" lane="E0_0" slope="0.00"/>
        <vehicle id="f1.1" x="-18.20" y="-1.60" angle="90.00" type="CarC" speed="9.79" pos="31.80" lane="E0_0" slope="0.00"/>
        <vehicle id="f2.0" x="40.79" y="1.60" angle="270.00" type="CarA" speed="8.89" pos="59.21" lane="-link_0" slope="0.00"/>
        <vehicle id="test0" x="8.20" y="1.60" angle="270.00" type="test" speed="9.69" pos="91.80" lane="-link_0" slope="0.00"/>
    </timestep>
    <timestep time="15.00">
        <vehicle id="f1.0" x="5.87" y="-1.60" angle="90.00" type="CarA" speed="9.33" pos="5.87" lane="link_0" slope="0.00"/>
        <vehicle id="f1.1" x="-9.97" y="-1.60" angle="90.00" type="CarC" speed="8.23" pos="40.03" lane="E0_0" slope="0.00"/>
        <vehicle id="f2.0" x="32.57" y="1.60" angle="270.00" type="CarA" speed="8.22" pos="67.43" lane="-link_0" slope="0.00"/>
        <vehicle id="test0" x="-1.50" y="1.60" angle="270.00" type="test" speed="9.79" pos="1.50" lane="-E0_0" slope="0.00"/>
    </timestep>
    <timestep time="16.00">
        <vehicle id="f1.0" x="15.69" y="-1.60" angle="90.00" type="CarA" speed="9.82" pos="15.69" lane="link_0" slope="0.00"/>
        <vehicle id="f1.1" x="-1.87" y="-1.60" angle="90.00" type="CarC" speed="8.10" pos="48.13" lane="E0_0" slope="0.00"/>
        <vehicle id="f2.0" x="23.18" y="1.60" angle="270.00" type="CarA" speed="9.39" pos="76.82" lane="-link_0" slope="0.00"/>
        <vehicle id="test0" x="-11.32" y="1.60" angle="270.00" type="test" speed="9.82" pos="11.32" lane="-E0_0" slope="0.00"/>
    </timestep>
    <timestep time="17.00">
        <vehicle id="f1.0" x="24.83" y="-1.60" angle="90.00" type="CarA" speed="9.14" pos="24.83" lane="link_0" slope="0.00"/>
        <vehicle id="f1.1" x="6.87" y="-1.60" angle="90.00" type="CarC" speed="8.85" pos="6.87" lane="link_0" slope="0.00"/>
        <vehicle id="f2.0" x="14.62" y="1.60" angle="270.00" type="CarA" speed="8.56" pos="85.38" lane="-link_0" slope="0.00"/>
        <vehicle id="test0" x="-21.12" y="1.60" angle="270.00" type="test" speed="9.80" pos="21.12" lane="-E0_0" slope="0.00"/>
    </timestep>
    <timestep time="18.00">
        <vehicle id="f1.0" x="32.48" y="-1.60" angle="90.00" type="CarA" speed="7.65" pos="32.48" lane="link_0" slope="0.00"/>
        <vehicle id="f1.1" x="16.62" y="-1.60" angle="90.00" type="CarC" speed="9.75" pos="16.62" lane="link_0" slope="0.00"/>
        <vehicle id="f2.0" x="6.48" y="1.60" angle="270.00" type="CarA" speed="8.15" pos="93.52" lane="-link_0" slope="0.00"/>
        <vehicle id="test0" x="-31.11" y="1.60" angle="270.00" type="test" speed="9.99" pos="31.11" lane="-E0_0" slope="0.00"/>
    </timestep>
    <timestep time="19.00">
        <vehicle id="f1.0" x="40.45" y="-1.60" angle="90.00" type="CarA" speed="7.97" pos="40.45" lane="link_0" slope="0.00"/>
        <vehicle id="f1.1" x="24.20" y="-1.60" angle="90.00" type="CarC" speed="7.57" pos="24.20" lane="link_0" slope="0.00"/>
        <vehicle id="f2.0" x="-1.14" y="1.60" angle="270.00" type="CarA" speed="7.72" pos="1.14" lane="-E0_0" slope="0.00"/>
        <vehicle id="test0" x="-40.84" y="1.60" angle="270.00" type="test" speed="9.73" pos="40.84" lane="-E0_0" slope="0.00"/>
    </timestep>
    <timestep time="20.00">
        <vehicle id="f1.0" x="49.29" y="-1.60" angle="90.00" type="CarA" speed="8.84" pos="49.29" lane="link_0" slope="0.00"/>
        <vehicle id="f1.1" x="32.24" y="-1.60" angle="90.00" type="CarC" speed="8.04" pos="32.24" lane="link_0" slope="0.00"/>
        <vehicle id="f2.0" x="-9.37" y="1.60" angle="270.00" type="CarA" speed="8.23" pos="9.37" lane="-E0_0" slope="0.00"/>
    </timestep>
    <timestep time="21.00">
        <vehicle id="f1.0" x="58.59" y="-1.60" angle="90.00" type="CarA" speed="9.30" pos="58.59" lane="link_0" slope="0.00"/>
        <vehicle id="f1.1" x="41.85" y="-1.60" angle="90.00" type="CarC" speed="9.62" pos="41.85" lane="link_0" slope="0.00"/>
        <vehicle id="f1.2" x="-44.90" y="-1.60" angle="90.00" type="CarB" speed="0.44" pos="5.10" lane="E0_0" slope="0.00"/>
        <vehicle id="f2.0" x="-17.57" y="1.60" angle="270.00" type="CarA" speed="8.19" pos="17.57" lane="-E0_0" slope="0.00"/>
    </timestep>
    <timestep time="22.00">
        <vehicle id="f1.0" x="68.42" y="-1.60" angle="90.00" type="CarA" speed="9.83" pos="68.42" lane="link_0" slope="0.00"/>
        <vehicle id="f1.1" x="50.55" y="-1.60" angle="90.00" type="CarC" speed="8.70" pos="50.55" lane="link_0" slope="0.00"/>
        <vehicle id="f1.2" x="-41.80" y="-1.60" angle="90.00" type="CarB" speed="3.10" pos="8.20" lane="E0_0" slope="0.00"/>
        <vehicle id="f2.0" x="-25.24" y="1.60" angle="270.00" type="CarA" speed="7.67" pos="25.24" lane="-E0_0" slope="0.00"/>
    </timestep>
    <timestep time="23.00">
        <vehicle id="f1.0" x="77.27" y="-1.60" angle="90.00" type="CarA" speed="8.85" pos="77.27" lane="link_0" slope="0.00"/>
        <vehicle id="f1.1" x="59.09" y="-1.60" angle="90.00" type="CarC" speed="8.53" pos="59.09" lane="link_0" slope="0.00"/>
        <vehicle id="f1.2" x="-35.90" y="-1.60" angle="90.00" type="CarB" speed="5.89" pos="14.10" lane="E0_0" slope="0.00"/>
        <vehicle id="f1.3" x="-44.90" y="-1.60" angle="90.00" type="CarA" speed="3.69" pos="5.10" lane="E0_0" slope="0.00"/>
        <vehicle id="f2.0" x="-33.60" y="1.60" angle="270.00" type="CarA" speed="8.36" pos="33.60" lane="-E0_0" slope="0.00"/>
    </timestep>
    <timestep time="24.00">
        <vehicle id="f1.0" x="86.02" y="-1.60" angle="90.00" type="CarA" speed="8.75" pos="86.02" lane="link_0" slope="0.00"/>
        <vehicle id="f1.1" x="68.40" y="-1.60" angle="90.00" type="CarC" speed="9.31" pos="68.40" lane="link_0" slope="0.00"/>
        <vehicle id="f1.2" x="-27.52" y="-1.60" angle="90.00" type="CarB" speed="8.38" pos="22.48" lane="E0_0" slope="0.00"/>
        <vehicle id="f1.3" x="-41.28" y="-1.60" angle="90.00" type="CarA" speed="3.62" pos="8.72" lane="E0_0" slope="0.00"/>
        <vehicle id="f2.0" x="-42.68" y="1.60" angle="270.00" type="CarA" speed="9.07" pos="42.68" lane="-E0_0" slope="0.00"/>
    </timestep>
    <timestep time="25.00">
        <vehicle id="f1.0" x="94.14" y="-1.60" angle="90.00" type="CarA" speed="8.12" pos="94.14" lane="link_0" slope="0.00"/>
        <vehicle id="f1.1" x="78.03" y="-1.60" angle="90.00" type="CarC" speed="9.63" pos="78.03" lane="link_0" slope="0.00"/>
        <vehicle id="f1.2" x="-18.05" y="-1.60" angle="90.00" type="CarB" speed="9.47" pos="31.95" lane="E0_0" slope="0.00"/>
        <vehicle id="f1.3" x="-35.58" y="-1.60" angle="90.00" type="CarA" speed="5.70" pos="14.42" lane="E0_0" slope="0.00"/>
        <vehicle id="f1.4" x="-44.90" y="-1.60" angle="90.00" type="CarC" speed="3.52" pos="5.10" lane="E0_0" slope="0.00"/>
    </timestep>
    <timestep time="26.00">
        <vehicle id="f1.0" x="102.81" y="-1.60" angle="90.00" type="CarA" speed="8.77" pos="2.81" lane="E2_0" slope="0.00"/>
        <vehicle id="f1.1" x="85.48" y="-1.60" angle="90.00" type="CarC" speed="7.45" pos="85.48" lane="link_0" slope="0.00"/>
        <vehicle id="f1.2" x="-8.47" y="-1.60" angle="90.00" type="CarB" speed="9.58" pos="41.53" lane="E0_0" slope="0.00"/>
        <vehicle id="f1.3" x="-27.15" y="-1.60" angle="90.00" type="CarA" speed="8.43" pos="22.85" lane="E0_0" slope="0.00"/>
        <vehicle id="f1.4" x="-42.34" y="-1.60" angle="90.00" type="CarC" speed="2.56" pos="7.66" lane="E0_0" slope="0.00"/>
    </timestep>
    <timestep time="27.00">
        <vehicle id="f1.0" x="111.89" y="-1.60" angle="90.00" type="CarA" speed="9.08" pos="11.89" lane="E2_0" slope="0.00"/>
        <vehicle id="f1.1" x="94.11" y="-1.60" angle="90.00" type="CarC" speed="8.63" pos="94.11" lane="link_0" slope="0.00"/>
        <vehicle id="f1.2" x="0.64" y="-1.60" angle="90.00" type="CarB" speed="9.21" pos="0.64" lane="link_0" slope="0.00"/>
        <vehicle id="f1.3" x="-19.09" y="-1.60" angle="90.00" type="CarA" speed="8.06" pos="30.91" lane="E0_0" slope="0.00"/>
        <vehicle id="f1.4" x="-36.80" y="-1.60" angle="90.00" type="CarC" speed="5.54" pos="13.20" lane="E0_0" slope="0.00"/>
        <vehicle id="f1.5" x="-44.90" y="-1.60" angle="90.00" type="CarB" speed="2.14" pos="5.10" lane="E0_0" slope="0.00"/>
    </timestep>
    <timestep time="28.00">
        <vehicle id="f1.0" x="121.57" y="-1.60" angle="90.00" type="CarA" speed="9.68" pos="21.57" lane="E2_0" slope="0.00"/>
        <vehicle id="f1.1" x="103.16" y="-1.60" angle="90.00" type="CarC" speed="9.15" pos="3.16" lane="E2_0" slope="0.00"/>
        <vehicle id="f1.2" x="9.72" y="-1.60" angle="90.00" type="CarB" speed="9.08" pos="9.72" lane="link_0" slope="0.00"/>
        <vehicle id="f1.3" x="-11.42" y="-1.60" angle="90.00" type="CarA" speed="7.67" pos="38.58" lane="E0_0" slope="0.00"/>
        <vehicle id="f1.4" x="-28.33" y="-1.60" angle="90.00" type="CarC" speed="8.47" pos="21.67" lane="E0_0" slope="0.00"/>
        <vehicle id="f1.5" x="-43.72" y="-1.60" angle="90.00" type="CarB" speed="1.18" pos="6.28" lane="E0_0" slope="0.00"/>
    </timestep>
    <timestep time="29.00">
        <vehicle id="f1.0" x="130.08" y="-1.60" angle="90.00" type="CarA" speed="8.51" pos="30.08" lane="E2_0" slope="0.00"/>
        <vehicle id="f1.1" x="112.59" y="-1.60" angle="90.00" type="CarC" speed="9.43" pos="12.59" lane="E2_0" slope="0.00"/>
        <vehicle id="f1.2" x="17.79" y="-1.60" angle="90.00" type="CarB" speed="8.07" pos="17.79" lane="link_0" slope="0.00"/>
        <vehicle id="f1.3" x="-3.72" y="-1.60" angle="90.00" type="CarA" speed="7.69" pos="46.28" lane="E0_0" slope="0.00"/>
        <vehicle id="f1.4" x="-19.57" y="-1.60" angle="90.00" type="CarC" speed="8.77" pos="30.43" lane="E0_0" slope="0.00"/>
        <vehicle id="f1.5" x="-39.39" y="-1.60" angle="90.00" type="CarB" speed="4.33" pos="10.61" lane="E0_0" slope="0.00"/>
    </timestep>
    <timestep time="30.00">
        <vehicle id="f1.0" x="139.83" y="-1.60" angle="90.00" type="CarA" speed="9.75" pos="39.83" lane="E2_0" slope="0.00"/>
        <vehicle id="f1.1" x="122.23" y="-1.60" angle="90.00" type="CarC" speed="9.64" pos="22.23" lane="E2_0" slope="0.00"/>
        <vehicle id="f1.2" x="27.45" y="-1.60" angle="90.00" type="CarB" speed="9.66" pos="27.45" lane="link_0" slope="0.00"/>
        <vehicle id="f1.3" x="4.97" y="-1.60" angle="90.00" type="CarA" speed="8.80" pos="4.97" lane="link_0" slope="0.00"/>
        <vehicle id="f1.4" x="-11.83" y="-1.60" angle="90.00" type="CarC" speed="7.74" pos="38.17" lane="E0_0" slope="0.00"/>
        <vehicle id="f1.5" x="-32.54" y="-1.60" angle="90.00" type="CarB" speed="6.85" pos="17.46" lane="E0_0" slope="0.00"/>
        <vehicle id="f1.6" x="-44.90" y="-1.60" angle="90.00" type="CarD" speed="6.35" pos="5.10" lane="E0_0" slope="0.00"/>
    </timestep>
    <timestep time="31.00">
        <vehicle id="f1.0" x="148.15" y="-1.60" angle="90.00" type="CarA" speed="8.32" pos="48.15" lane="E2_0" slope="0.00"/>
        <vehicle id="f1.1" x="132.08" y="-1.60" angle="90.00" type="CarC" speed="9.85" pos="32.08" lane="E2_0" slope="0.00"/>
        <vehicle id="f1.2" x="35.99" y="-1.60" angle="90.00" type="CarB" speed="8.54" pos="35.99" lane="link_0" slope="0.00"/>
        <vehicle id="f1.3" x="14.66" y="-1.60" angle="90.00" type="CarA" speed="9.68" pos="14.66" lane="link_0" slope="0.00"/>
        <vehicle id="f1.4" x="-3.12" y="-1.60" angle="90.00" type="CarC" speed="8.70" pos="46.88" lane="E0_0" slope="0.00"/>
        <vehicle id="f1.5" x="-23.57" y="-1.60" angle="90.00" type="CarB" speed="8.97" pos="26.43" lane="E0_0" slope="0.00"/>
        <vehicle id="f1.6" x="-38.86" y="-1.60" angle="90.00" type="CarD" speed="6.04" pos="11.14" lane="E0_0" slope="0.00"/>
    </timestep>
    <timestep time="32.00">
        <vehicle id="f1.1" x="140.84" y="-1.60" angle="90.00" type="CarC" speed="8.76" pos="40.84" lane="E2_0" slope="0.00"/>
        <vehicle id="f1.2" x="44.85" y="-1.60" angle="90.00" type="CarB" speed="8.86" pos="44.85" lane="link_0" slope="0.00"/>
        <vehicle id="f1.3" x="21.91" y="-1.60" angle="90.00" type="CarA" speed="7.25" pos="21.91" lane="link_0" slope="0.00"/>
        <vehicle id="f1.4" x="6.65" y="-1.60" angle="90.00" type="CarC" speed="9.87" pos="6.65" lane="link_0" slope="0.00"/>
        <vehicle id="f1.5" x="-13.99" y="-1.60" angle="90.00" type="CarB" speed="9.57" pos="36.01" lane="E0_0" slope="0.00"/>
        <vehicle id="f1.6" x="-31.51" y="-1.60" angle="90.00" type="CarD" speed="7.35" pos="18.49" lane="E0_0" slope="0.00"/>
        <vehicle id="f1.7" x="-44.90" y="-1.60" angle="90.00" type="CarC" speed="3.22" pos="5.10" lane="E0_0" slope="0.00"/>
    </timestep>
    <timestep time="33.00">
        <vehicle id="f1.2" x="53.30" y="-1.60" angle="90.00" type="CarB" speed="8.46" pos="53.30" lane="link_0" slope="0.00"/>
        <vehicle id="f1.3" x="29.76" y="-1.60" angle="90.00" type="CarA" speed="7.86" pos="29.76" lane="link_0" slope="0.00"/>
        <vehicle id="f1.4" x="14.46" y="-1.60" angle="90.00" type="CarC" speed="7.81" pos="14.46" lane="link_0" slope="0.00"/>
        <vehicle id="f1.5" x="-4.64" y="-1.60" angle="90.00" type="CarB" speed="9.36" pos="45.36" lane="E0_0" slope="0.00"/>
        <vehicle id="f1.6" x="-22.49" y="-1.60" angle="90.00" type="CarD" speed="9.01" pos="27.51" lane="E0_0" slope="0.00"/>
        <vehicle id="f1.7" x="-39.27" y="-1.60" angle="90.00" type="CarC" speed="5.63" pos="10.73" lane="E0_0" slope="0.00"/>
    </timestep>
    <timestep time="34.00">
        <vehicle id="f1.2" x="62.55" y="-1.60" angle="90.00" type="CarB" speed="9.24" pos="62.55" lane="link_0" slope="0.00"/>
        <vehicle id="f1.3" x="38.03" y="-1.60" angle="90.00" type="CarA" speed="8.26" pos="38.03" lane="link_0" slope="0.00"/>
        <vehicle id="f1.4" x="22.44" y="-1.60" angle="90.00" type="CarC" speed="7.98" pos="22.44" lane="link_0" slope="0.00"/>
        <vehicle id="f1.5" x="3.23" y="-1.60" angle="90.00" type="CarB" speed="7.97" pos="3.23" lane="link_0" slope="0.00"/>
        <vehicle id="f1.6" x="-13.23" y="-1.60" angle="90.00" type="CarD" speed="9.26" pos="36.77" lane="E0_0" slope="0.00"/>
        <vehicle id="f1.7" x="-31.54" y="-1.60" angle="90.00" type="CarC" speed="7.73" pos="18.46" lane="E0_0" slope="0.00"/>
    </timestep>
    <timestep time="35.00">
        <vehicle id="f1.2" x="71.01" y="-1.60" angle="90.00" type="CarB" speed="8.46" pos="71.01" lane="link_0" slope="0.00"/>
        <vehicle id="f1.3" x="47.57" y="-1.60" angle="90.00" type="CarA" speed="9.54" pos="47.57" lane="link_0" slope="0.00"/>
        <vehicle id="f1.4" x="29.89" y="-1.60" angle="90.00" type="CarC" speed="7.46" pos="29.89" lane="link_0" slope="0.00"/>
        <vehicle id="f1.5" x="10.51" y="-1.60" angle="90.00" type="CarB" speed="7.28" pos="10.51" lane="link_0" slope="0.00"/>
        <vehicle id="f1.6" x="-4.68" y="-1.60" angle="90.00" type="CarD" speed="8.55" pos="45.32" lane="E0_0" slope="0.00"/>
        <vehicle id="f1.7" x="-22.84" y="-1.60" angle="90.00" type="CarC" speed="8.70" pos="27.16" lane="E0_0" slope="0.00"/>
    </timestep>
    <timestep time="36.00">
        <vehicle id="f1.2" x="79.50" y="-1.60" angle="90.00" type="CarB" speed="8.50" pos="79.50" lane="link_0" slope="0.00"/>
        <vehicle id="f1.3" x="55.14" y="-1.60" angle="90.00" type="CarA" speed="7.57" pos="55.14" lane="link_0" slope="0.00"/>
        <vehicle id="f1.4" x="39.13" y="-1.60" angle="90.00" type="CarC" speed="9.24" pos="39.13" lane="link_0" slope="0.00"/>
        <vehicle id="f1.5" x="19.55" y="-1.60" angle="90.00" type="CarB" speed="9.04" pos="19.55" lane="link_0" slope="0.00"/>
        <vehicle id="f1.6" x="2.80" y="-1.60" angle="90.00" type="CarD" speed="7.58" pos="2.80" lane="link_0" slope="0.00"/>
        <vehicle id="f1.7" x="-13.43" y="-1.60" angle="90.00" type="CarC" speed="9.41" pos="36.57" lane="E0_0" slope="0.00"/>
    </timestep>
    <timestep time="37.00">
        <vehicle id="f1.2" x="88.62" y="-1.60" angle="90.00" type="CarB" speed="9.11" pos="88.62" lane="link_0" slope="0.00"/>
        <vehicle id="f1.3" x="63.78" y="-1.60" angle="90.00" type="CarA" speed="8.64" pos="63.78" lane="link_0" slope="0.00"/>
        <vehicle id="f1.4" x="47.58" y="-1.60" angle="90.00" type="CarC" speed="8.46" pos="47.58" lane="link_0" slope="0.00"/>
        <vehicle id="f1.5" x="27.68" y="-1.60" angle="90.00" type="CarB" speed="8.13" pos="27.68" lane="link_0" slope="0.00"/>
        <vehicle id="f1.6" x="11.93" y="-1.60" angle="90.00" type="CarD" speed="9.13" pos="11.93" lane="link_0" slope="0.00"/>
        <vehicle id="f1.7" x="-6.18" y="-1.60" angle="90.00" type="CarC" speed="7.25" pos="43.82" lane="E0_0" slope="0.00"/>
    </timestep>
    <timestep time="38.00">
        <vehicle id="f1.2" x="98.11" y="-1.60" angle="90.00" type="CarB" speed="9.49" pos="98.11" lane="link_0" slope="0.00"/>
        <vehicle id="f1.3" x="73.54" y="-1.60" angle="90.00" type="CarA" speed="9.76" pos="73.54" lane="link_0" slope="0.00"/>
        <vehicle id="f1.4" x="55.65" y="-1.60" angle="90.00" type="CarC" speed="8.07" pos="55.65" lane="link_0" slope="0.00"/>
        <vehicle id="f1.5" x="36.19" y="-1.60" angle="90.00" type="CarB" speed="8.51" pos="36.19" lane="link_0" slope="0.00"/>
        <vehicle id="f1.6" x="19.65" y="-1.60" angle="90.00" type="CarD" speed="7.72" pos="19.65" lane="link_0" slope="0.00"/>
        <vehicle id="f1.7" x="2.32" y="-1.60" angle="90.00" type="CarC" speed="8.60" pos="2.32" lane="link_0" slope="0.00"/>
    </timestep>
    <timestep time="39.00">
        <vehicle id="f1.2" x="106.65" y="-1.60" angle="90.00" type="CarB" speed="8.64" pos="6.65" lane="E2_0" slope="0.00"/>
        <vehicle id="f1.3" x="81.59" y="-1.60" angle="90.00" type="CarA" speed="8.05" pos="81.59" lane="link_0" slope="0.00"/>
        <vehicle id="f1.4" x="65.25" y="-1.60" angle="90.00" type="CarC" speed="9.60" pos="65.25" lane="link_0" slope="0.00"/>
        <vehicle id="f1.5" x="45.43" y="-1.60" angle="90.00" type="CarB" speed="9.24" pos="45.43" lane="link_0" slope="0.00"/>
        <vehicle id="f1.6" x="28.22" y="-1.60" angle="90.00" type="CarD" speed="8.57" pos="28.22" lane="link_0" slope="0.00"/>
        <vehicle id="f1.7" x="9.76" y="-1.60" angle="90.00" type="CarC" speed="7.44" pos="9.76" lane="link_0" slope="0.00"/>
    </timestep>
    <timestep time="40.00">
        <vehicle id="f1.2" x="116.24" y="-1.60" angle="90.00" type="CarB" speed="9.59" pos="16.24" lane="E2_0" slope="0.00"/>
        <vehicle id="f1.3" x="90.65" y="-1.60" angle="90.00" type="CarA" speed="9.05" pos="90.65" lane="link_0" slope="0.00"/>
        <vehicle id="f1.4" x="73.67" y="-1.60" angle="90.00" type="CarC" speed="8.42" pos="73.67" lane="link_0" slope="0.00"/>
        <vehicle id="f1.5" x="53.78" y="-1.60" angle="90.00" type="CarB" speed="8.35" pos="53.78" lane="link_0" slope="0.00"/>
        <vehicle id="f1.6" x="37.44" y="-1.60" angle="90.00" type="CarD" speed="9.22" pos="37.44" lane="link_0" slope="0.00"/>
        <vehicle id="f1.7" x="18.60" y="-1.60" angle="90.00" type="CarC" speed="8.84" pos="18.60" lane="link_0" slope="0.00"/>
    </timestep>
    <timestep time="41.00">
        <vehicle id="f1.2" x="124.96" y="-1.60" angle="90.00" type="CarB" speed="8.72" pos="24.96" lane="E2_0" slope="0.00"/>
        <vehicle id="f1.3" x="100.08" y="-1.60" angle="90.00" type="CarA" speed="9.53" pos="0.08" lane="E2_0" slope="0.00"/>
        <vehicle id="f1.4" x="82.42" y="-1.60" angle="90.00" type="CarC" speed="8.75" pos="82.42" lane="link_0" slope="0.00"/>
        <vehicle id="f1.5" x="62.19" y="-1.60" angle="90.00" type="CarB" speed="8.42" pos="62.19" lane="link_0" slope="0.00"/>
        <vehicle id="f1.6" x="46.24" y="-1.60" angle="90.00" type="CarD" speed="8.80" pos="46.24" lane="link_0" slope="0.00"/>
        <vehicle id="f1.7" x="27.57" y="-1.60" angle="90.00" type="CarC" speed="8.97" pos="27.57" lane="link_0" slope="0.00"/>
    </timestep>
    <timestep time="42.00">
        <vehicle id="f1.2" x="134.55" y="-1.60" angle="90.00" type="CarB" speed="9.59" pos="34.55" lane="E2_0" slope="0.00"/>
        <vehicle id="f1.3" x="109.06" y="-1.60" angle="90.00" type="CarA" speed="8.98" pos="9.06" lane="E2_0" slope="0.00"/>
        <vehicle id="f1.4" x="91.70" y="-1.60" angle="90.00" type="CarC" speed="9.28" pos="91.70" lane="link_0" slope="0.00"/>
        <vehicle id="f1.5" x="70.51" y="-1.60" angle="90.00" type="CarB" speed="8.32" pos="70.51" lane="link_0" slope="0.00"/>
        <vehicle id="f1.6" x="54.27" y="-1.60" angle="90.00" type="CarD" speed="8.03" pos="54.27" lane="link_0" slope="0.00"/>
        <vehicle id="f1.7" x="36.31" y="-1.60" angle="90.00" type="CarC" speed="8.74" pos="36.31" lane="link_0" slope="0.00"/>
    </timestep>
    <timestep time="43.00">
        <vehicle id="f1.2" x="142.55" y="-1.60" angle="90.00" type="CarB" speed="8.00" pos="42.55" lane="E2_0" slope="0.00"/>
        <vehicle id="f1.3" x="119.02" y="-1.60" angle="90.00" type="CarA" speed="9.96" pos="19.02" lane="E2_0" slope="0.00"/>
        <vehicle id="f1.4" x="101.06" y="-1.60" angle="90.00" type="CarC" speed="9.46" pos="1.06" lane="E2_0" slope="0.00"/>
        <vehicle id="f1.5" x="79.76" y="-1.60" angle="90.00" type="CarB" speed="9.25" pos="79.76" lane="link_0" slope="0.00"/>
        <vehicle id="f1.6" x="63.29" y="-1.60" angle="90.00" type="CarD" speed="9.02" pos="63.29" lane="link_0" slope="0.00"/>
        <vehicle id="f1.7" x="45.28" y="-1.60" angle="90.00" type="CarC" speed="8.97" pos="45.28" lane="link_0" slope="0.00"/>
    </timestep>
    <timestep time="44.00">
        <vehicle id="f1.3" x="126.31" y="-1.60" angle="90.00" type="CarA" speed="7.28" pos="26.31" lane="E2_0" slope="0.00"/>
        <vehicle id="f1.4" x="109.76" y="-1.60" angle="90.00" type="CarC" speed="8.70" pos="9.76" lane="E2_0" slope="0.00"/>
        <vehicle id="f1.5" x="88.38" y="-1.60" angle="90.00" type="CarB" speed="8.62" pos="88.38" lane="link_0" slope="0.00"/>
        <vehicle id="f1.6" x="72.66" y="-1.60" angle="90.00" type="CarD" speed="9.38" pos="72.66" lane="link_0" slope="0.00"/>
        <vehicle id="f1.7" x="54.62" y="-1.60" angle="90.00" type="CarC" speed="9.33" pos="54.62" lane="link_0" slope="0.00"/>
    </timestep>
    <timestep time="45.00">
        <vehicle id="f1.3" x="134.53" y="-1.60" angle="90.00" type="CarA" speed="8.23" pos="34.53" lane="E2_0" slope="0.00"/>
        <vehicle id="f1.4" x="118.31" y="-1.60" angle="90.00" type="CarC" speed="8.55" pos="18.31" lane="E2_0" slope="0.00"/>
        <vehicle id="f1.5" x="97.63" y="-1.60" angle="90.00" type="CarB" speed="9.26" pos="97.63" lane="link_0" slope="0.00"/>
        <vehicle id="f1.6" x="81.15" y="-1.60" angle="90.00" type="CarD" speed="8.49" pos="81.15" lane="link_0" slope="0.00"/>
        <vehicle id="f1.7" x="64.41" y="-1.60" angle="90.00" type="CarC" speed="9.79" pos="64.41" lane="link_0" slope="0.00"/>
    </timestep>
    <timestep time="46.00">
        <vehicle id="f1.3" x="144.53" y="-1.60" angle="90.00" type="CarA" speed="9.99" pos="44.53" lane="E2_0" slope="0.00"/>
        <vehicle id="f1.4" x="126.29" y="-1.60" angle="90.00" type="CarC" speed="7.98" pos="26.29" lane="E2_0" slope="0.00"/>
        <vehicle id="f1.5" x="105.53" y="-1.60" angle="90.00" type="CarB" speed="7.99" pos="5.53" lane="E2_0" slope="0.00"/>
        <vehicle id="f1.6" x="90.05" y="-1.60" angle="90.00" type="CarD" speed="8.90" pos="90.05" lane="link_0" slope="0.00"/>
        <vehicle id="f1.7" x="72.07" y="-1.60" angle="90.00" type="CarC" speed="7.66" pos="72.07" lane="link_0" slope="0.00"/>
    </timestep>
    <timestep time="47.00">
        <vehicle id="f1.4" x="135.51" y="-1.60" angle="90.00" type="CarC" speed="9.22" pos="35.51" lane="E2_0" slope="0.00"/>
        <vehicle id="f1.5" x="114.51" y="-1.60" angle="90.00" type="CarB" speed="8.98" pos="14.51" lane="E2_0" slope="0.00"/>
        <vehicle id="f1.6" x="97.68" y="-1.60" angle="90.00" type="CarD" speed="7.63" pos="97.68" lane="link_0" slope="0.00"/>
        <vehicle id="f1.7" x="80.93" y="-1.60" angle="90.00" type="CarC" speed="8.86" pos="80.93" lane="link_0" slope="0.00"/>
    </timestep>
    <timestep time="48.00">